LAMMPS (28 Feb 2012)
echo none
  triclinic box = (-3.7345 -3.7345 -3.7345) to (3.7345 3.7345 3.7345) with tilt (-8.88178e-16 0 0)
  1 by 1 by 1 MPI processor grid
  500 atoms
  500 velocities
WARNING: No fixes defined, atoms won't move (verlet.cpp:52)
Memory usage per processor = 1.71601 Mbytes
Step Temp E_pair E_mol TotEng Press 
       0   0.49133947   -7.5406676            0   -6.8051324  0.041918914 
Loop time of 1.19209e-06 on 1 procs for 0 steps with 500 atoms

Pair  time (%) = 0 (0)
Neigh time (%) = 0 (0)
Comm  time (%) = 0 (0)
Outpt time (%) = 0 (0)
Other time (%) = 1.19209e-06 (100)

Nlocal:    500 ave 500 max 500 min
Histogram: 1 0 0 0 0 0 0 0 0 0
Nghost:    2168 ave 2168 max 2168 min
Histogram: 1 0 0 0 0 0 0 0 0 0
Neighs:    22837 ave 22837 max 22837 min
Histogram: 1 0 0 0 0 0 0 0 0 0

Total # of neighbors = 22837
Ave neighs/atom = 45.674
Neighbor list builds = 0
Dangerous builds = 0
  500 settings made for image
  triclinic box = (-3.7345 -3.7345 -3.7345) to (3.7345 3.7345 3.7345) with tilt (-8.88178e-16 0 0)
WARNING: Resetting reneighboring criteria during minimization (min.cpp:166)
Memory usage per processor = 2.43699 Mbytes
Step Temp E_pair E_mol TotEng Press 
       0   0.49133947   -7.5406676            0   -6.8051324  0.041918914 
       1   0.49133947   -7.5406676            0   -6.8051324  0.041918914 
Loop time of 0.0105731 on 1 procs for 1 steps with 500 atoms

Minimization stats:
  Stopping criterion = linesearch alpha is zero
  Energy initial, next-to-last, final = 
         -7.5406675949      -7.5406675949      -7.5406675949
  Force two-norm initial, final = 0.0605274 0.0605274
  Force max component initial, final = 0.0112241 0.0112241
  Final line search alpha, max atom move = 0.000976562 1.0961e-05
  Iterations, force evaluations = 1 11

Pair  time (%) = 0.0101211 (95.7246)
Neigh time (%) = 0 (0)
Comm  time (%) = 0.000296593 (2.80515)
Outpt time (%) = 0 (0)
Other time (%) = 0.000155449 (1.47022)

Nlocal:    500 ave 500 max 500 min
Histogram: 1 0 0 0 0 0 0 0 0 0
Nghost:    2168 ave 2168 max 2168 min
Histogram: 1 0 0 0 0 0 0 0 0 0
Neighs:    22837 ave 22837 max 22837 min
Histogram: 1 0 0 0 0 0 0 0 0 0

Total # of neighbors = 22837
Ave neighs/atom = 45.674
Neighbor list builds = 0
Dangerous builds = 0
WARNING: No fixes defined, atoms won't move (verlet.cpp:52)
Memory usage per processor = 1.71601 Mbytes
mystep PotEng Xy Xz Yz Lx 
           0   -7.5406676 -8.8817842e-16            0            0        7.469 
Loop time of 9.53674e-07 on 1 procs for 0 steps with 500 atoms

Pair  time (%) = 0 (0)
Neigh time (%) = 0 (0)
Comm  time (%) = 0 (0)
Outpt time (%) = 0 (0)
Other time (%) = 9.53674e-07 (100)

Nlocal:    500 ave 500 max 500 min
Histogram: 1 0 0 0 0 0 0 0 0 0
Nghost:    2168 ave 2168 max 2168 min
Histogram: 1 0 0 0 0 0 0 0 0 0
Neighs:    22837 ave 22837 max 22837 min
Histogram: 1 0 0 0 0 0 0 0 0 0

Total # of neighbors = 22837
Ave neighs/atom = 45.674
Neighbor list builds = 0
Dangerous builds = 0
WARNING: Resetting reneighboring criteria during minimization (min.cpp:166)
Memory usage per processor = 2.43699 Mbytes
mystep PotEng Xy Xz Yz Lx 
           0   -7.5406676 -8.8817842e-16            0            0        7.469 
           0   -7.5406676 -8.8817842e-16            0            0        7.469 
Loop time of 0.0105691 on 1 procs for 1 steps with 500 atoms

Minimization stats:
  Stopping criterion = linesearch alpha is zero
  Energy initial, next-to-last, final = 
         -7.5406675949      -7.5406675949      -7.5406675949
  Force two-norm initial, final = 0.0605274 0.0605274
  Force max component initial, final = 0.0112241 0.0112241
  Final line search alpha, max atom move = 0.000976562 1.0961e-05
  Iterations, force evaluations = 1 11

Pair  time (%) = 0.0101261 (95.8087)
Neigh time (%) = 0 (0)
Comm  time (%) = 0.000296831 (2.80848)
Outpt time (%) = 0 (0)
Other time (%) = 0.000146151 (1.38281)

Nlocal:    500 ave 500 max 500 min
Histogram: 1 0 0 0 0 0 0 0 0 0
Nghost:    2168 ave 2168 max 2168 min
Histogram: 1 0 0 0 0 0 0 0 0 0
Neighs:    22837 ave 22837 max 22837 min
Histogram: 1 0 0 0 0 0 0 0 0 0

Total # of neighbors = 22837
Ave neighs/atom = 45.674
Neighbor list builds = 0
Dangerous builds = 0
Memory usage per processor = 1.71601 Mbytes
mystep PotEng Xy Xz Yz Lx 
           1   -7.5406676 -8.8817842e-16            0            0        7.469 
           1   -7.5406676     0.007469            0            0        7.469 
Loop time of 0.000891924 on 1 procs for 1 steps with 500 atoms

Pair  time (%) = 0.000842094 (94.4133)
Neigh time (%) = 0 (0)
Comm  time (%) = 2.57492e-05 (2.88693)
Outpt time (%) = 5.96046e-06 (0.668271)
Other time (%) = 1.81198e-05 (2.03154)

Nlocal:    500 ave 500 max 500 min
Histogram: 1 0 0 0 0 0 0 0 0 0
Nghost:    2168 ave 2168 max 2168 min
Histogram: 1 0 0 0 0 0 0 0 0 0
Neighs:    22837 ave 22837 max 22837 min
Histogram: 1 0 0 0 0 0 0 0 0 0

Total # of neighbors = 22837
Ave neighs/atom = 45.674
Neighbor list builds = 0
Dangerous builds = 0
WARNING: No fixes defined, atoms won't move (verlet.cpp:52)
Memory usage per processor = 1.71601 Mbytes
mystep PotEng Xy Xz Yz Lx 
           1   -7.5396058     0.007469            0            0        7.469 
Loop time of 0 on 1 procs for 0 steps with 500 atoms

Pair  time (%) = 0 (0)
Neigh time (%) = 0 (0)
Comm  time (%) = 0 (0)
Outpt time (%) = 0 (0)
Other time (%) = 0 (0)

Nlocal:    500 ave 500 max 500 min
Histogram: 1 0 0 0 0 0 0 0 0 0
Nghost:    2168 ave 2168 max 2168 min
Histogram: 1 0 0 0 0 0 0 0 0 0
Neighs:    22840 ave 22840 max 22840 min
Histogram: 1 0 0 0 0 0 0 0 0 0

Total # of neighbors = 22840
Ave neighs/atom = 45.68
Neighbor list builds = 0
Dangerous builds = 0
WARNING: Resetting reneighboring criteria during minimization (min.cpp:166)
Memory usage per processor = 2.43699 Mbytes
mystep PotEng Xy Xz Yz Lx 
           2   -7.5396058     0.007469            0            0        7.469 
           2   -7.5396182     0.007469            0            0        7.469 
Loop time of 0.129564 on 1 procs for 15 steps with 500 atoms

Minimization stats:
  Stopping criterion = energy tolerance
  Energy initial, next-to-last, final = 
        -7.53960581683     -7.53961809045     -7.53961815241
  Force two-norm initial, final = 1.51893 0.194202
  Force max component initial, final = 0.160327 0.0417969
  Final line search alpha, max atom move = 0.00390625 0.000163269
  Iterations, force evaluations = 15 146

Pair  time (%) = 0.123944 (95.6624)
Neigh time (%) = 0 (0)
Comm  time (%) = 0.00363016 (2.80183)
Outpt time (%) = 0 (0)
Other time (%) = 0.00198984 (1.5358)

Nlocal:    500 ave 500 max 500 min
Histogram: 1 0 0 0 0 0 0 0 0 0
Nghost:    2168 ave 2168 max 2168 min
Histogram: 1 0 0 0 0 0 0 0 0 0
Neighs:    22840 ave 22840 max 22840 min
Histogram: 1 0 0 0 0 0 0 0 0 0

Total # of neighbors = 22840
Ave neighs/atom = 45.68
Neighbor list builds = 0
Dangerous builds = 0
WARNING: No fixes defined, atoms won't move (verlet.cpp:52)
Memory usage per processor = 1.71601 Mbytes
mystep PotEng Xy Xz Yz Lx 
           2   -7.5396182     0.007469            0            0        7.469 
Loop time of 9.53674e-07 on 1 procs for 0 steps with 500 atoms

Pair  time (%) = 0 (0)
Neigh time (%) = 0 (0)
Comm  time (%) = 0 (0)
Outpt time (%) = 0 (0)
Other time (%) = 9.53674e-07 (100)

Nlocal:    500 ave 500 max 500 min
Histogram: 1 0 0 0 0 0 0 0 0 0
Nghost:    2168 ave 2168 max 2168 min
Histogram: 1 0 0 0 0 0 0 0 0 0
Neighs:    22844 ave 22844 max 22844 min
Histogram: 1 0 0 0 0 0 0 0 0 0

Total # of neighbors = 22844
Ave neighs/atom = 45.688
Neighbor list builds = 0
Dangerous builds = 0
Memory usage per processor = 1.71601 Mbytes
mystep PotEng Xy Xz Yz Lx 
           3   -7.5396182     0.007469            0            0        7.469 
           3   -7.5396182     0.014938            0            0        7.469 
Loop time of 0.000886202 on 1 procs for 1 steps with 500 atoms

Pair  time (%) = 0.000843048 (95.1305)
Neigh time (%) = 0 (0)
Comm  time (%) = 2.52724e-05 (2.85176)
Outpt time (%) = 5.00679e-06 (0.564972)
Other time (%) = 1.28746e-05 (1.45278)

Nlocal:    500 ave 500 max 500 min
Histogram: 1 0 0 0 0 0 0 0 0 0
Nghost:    2168 ave 2168 max 2168 min
Histogram: 1 0 0 0 0 0 0 0 0 0
Neighs:    22844 ave 22844 max 22844 min
Histogram: 1 0 0 0 0 0 0 0 0 0

Total # of neighbors = 22844
Ave neighs/atom = 45.688
Neighbor list builds = 0
Dangerous builds = 0
WARNING: No fixes defined, atoms won't move (verlet.cpp:52)
Memory usage per processor = 1.71601 Mbytes
mystep PotEng Xy Xz Yz Lx 
           3   -7.5385414     0.014938            0            0        7.469 
Loop time of 0 on 1 procs for 0 steps with 500 atoms

Pair  time (%) = 0 (0)
Neigh time (%) = 0 (0)
Comm  time (%) = 0 (0)
Outpt time (%) = 0 (0)
Other time (%) = 0 (0)

Nlocal:    500 ave 500 max 500 min
Histogram: 1 0 0 0 0 0 0 0 0 0
Nghost:    2168 ave 2168 max 2168 min
Histogram: 1 0 0 0 0 0 0 0 0 0
Neighs:    22848 ave 22848 max 22848 min
Histogram: 1 0 0 0 0 0 0 0 0 0

Total # of neighbors = 22848
Ave neighs/atom = 45.696
Neighbor list builds = 0
Dangerous builds = 0
WARNING: Resetting reneighboring criteria during minimization (min.cpp:166)
Memory usage per processor = 2.43699 Mbytes
mystep PotEng Xy Xz Yz Lx 
           4   -7.5385414     0.014938            0            0        7.469 
           4    -7.538559     0.014938            0            0        7.469 
Loop time of 0.215319 on 1 procs for 25 steps with 500 atoms

Minimization stats:
  Stopping criterion = energy tolerance
  Energy initial, next-to-last, final = 
        -7.53854136364     -7.53855895242     -7.53855902602
  Force two-norm initial, final = 1.52893 0.151549
  Force max component initial, final = 0.153 0.0222463
  Final line search alpha, max atom move = 0.00195312 4.34497e-05
  Iterations, force evaluations = 25 239

Pair  time (%) = 0.202288 (93.948)
Neigh time (%) = 0.00351501 (1.63246)
Comm  time (%) = 0.00619936 (2.87915)
Outpt time (%) = 0 (0)
Other time (%) = 0.00331664 (1.54034)

Nlocal:    500 ave 500 max 500 min
Histogram: 1 0 0 0 0 0 0 0 0 0
Nghost:    2168 ave 2168 max 2168 min
Histogram: 1 0 0 0 0 0 0 0 0 0
Neighs:    22844 ave 22844 max 22844 min
Histogram: 1 0 0 0 0 0 0 0 0 0

Total # of neighbors = 22844
Ave neighs/atom = 45.688
Neighbor list builds = 2
Dangerous builds = 0
WARNING: No fixes defined, atoms won't move (verlet.cpp:52)
Memory usage per processor = 1.71601 Mbytes
mystep PotEng Xy Xz Yz Lx 
           4    -7.538559     0.014938            0            0        7.469 
Loop time of 0 on 1 procs for 0 steps with 500 atoms

Pair  time (%) = 0 (0)
Neigh time (%) = 0 (0)
Comm  time (%) = 0 (0)
Outpt time (%) = 0 (0)
Other time (%) = 0 (0)

Nlocal:    500 ave 500 max 500 min
Histogram: 1 0 0 0 0 0 0 0 0 0
Nghost:    2168 ave 2168 max 2168 min
Histogram: 1 0 0 0 0 0 0 0 0 0
Neighs:    22845 ave 22845 max 22845 min
Histogram: 1 0 0 0 0 0 0 0 0 0

Total # of neighbors = 22845
Ave neighs/atom = 45.69
Neighbor list builds = 0
Dangerous builds = 0
Memory usage per processor = 1.71601 Mbytes
mystep PotEng Xy Xz Yz Lx 
           5    -7.538559     0.014938            0            0        7.469 
           5    -7.538559     0.022407            0            0        7.469 
Loop time of 0.00088501 on 1 procs for 1 steps with 500 atoms

Pair  time (%) = 0.000843048 (95.2586)
Neigh time (%) = 0 (0)
Comm  time (%) = 2.5034e-05 (2.82866)
Outpt time (%) = 5.00679e-06 (0.565733)
Other time (%) = 1.19209e-05 (1.34698)

Nlocal:    500 ave 500 max 500 min
Histogram: 1 0 0 0 0 0 0 0 0 0
Nghost:    2168 ave 2168 max 2168 min
Histogram: 1 0 0 0 0 0 0 0 0 0
Neighs:    22845 ave 22845 max 22845 min
Histogram: 1 0 0 0 0 0 0 0 0 0

Total # of neighbors = 22845
Ave neighs/atom = 45.69
Neighbor list builds = 0
Dangerous builds = 0
WARNING: No fixes defined, atoms won't move (verlet.cpp:52)
Memory usage per processor = 1.71601 Mbytes
mystep PotEng Xy Xz Yz Lx 
           5    -7.537472     0.022407            0            0        7.469 
Loop time of 0 on 1 procs for 0 steps with 500 atoms

Pair  time (%) = 0 (0)
Neigh time (%) = 0 (0)
Comm  time (%) = 0 (0)
Outpt time (%) = 0 (0)
Other time (%) = 0 (0)

Nlocal:    500 ave 500 max 500 min
Histogram: 1 0 0 0 0 0 0 0 0 0
Nghost:    2168 ave 2168 max 2168 min
Histogram: 1 0 0 0 0 0 0 0 0 0
Neighs:    22846 ave 22846 max 22846 min
Histogram: 1 0 0 0 0 0 0 0 0 0

Total # of neighbors = 22846
Ave neighs/atom = 45.692
Neighbor list builds = 0
Dangerous builds = 0
WARNING: Resetting reneighboring criteria during minimization (min.cpp:166)
Memory usage per processor = 2.43699 Mbytes
mystep PotEng Xy Xz Yz Lx 
           6    -7.537472     0.022407            0            0        7.469 
           6   -7.5374886     0.022407            0            0        7.469 
Loop time of 0.219274 on 1 procs for 26 steps with 500 atoms

Minimization stats:
  Stopping criterion = energy tolerance
  Energy initial, next-to-last, final = 
        -7.53747196623     -7.53748855349     -7.53748860803
  Force two-norm initial, final = 1.53261 0.14597
  Force max component initial, final = 0.163839 0.0361671
  Final line search alpha, max atom move = 0.00195312 7.06389e-05
  Iterations, force evaluations = 26 248

Pair  time (%) = 0.2097 (95.6336)
Neigh time (%) = 0 (0)
Comm  time (%) = 0.00618482 (2.82059)
Outpt time (%) = 0 (0)
Other time (%) = 0.0033896 (1.54583)

Nlocal:    500 ave 500 max 500 min
Histogram: 1 0 0 0 0 0 0 0 0 0
Nghost:    2168 ave 2168 max 2168 min
Histogram: 1 0 0 0 0 0 0 0 0 0
Neighs:    22846 ave 22846 max 22846 min
Histogram: 1 0 0 0 0 0 0 0 0 0

Total # of neighbors = 22846
Ave neighs/atom = 45.692
Neighbor list builds = 0
Dangerous builds = 0
WARNING: No fixes defined, atoms won't move (verlet.cpp:52)
Memory usage per processor = 1.71601 Mbytes
mystep PotEng Xy Xz Yz Lx 
           6   -7.5374886     0.022407            0            0        7.469 
Loop time of 9.53674e-07 on 1 procs for 0 steps with 500 atoms

Pair  time (%) = 0 (0)
Neigh time (%) = 0 (0)
Comm  time (%) = 0 (0)
Outpt time (%) = 0 (0)
Other time (%) = 9.53674e-07 (100)

Nlocal:    500 ave 500 max 500 min
Histogram: 1 0 0 0 0 0 0 0 0 0
Nghost:    2172 ave 2172 max 2172 min
Histogram: 1 0 0 0 0 0 0 0 0 0
Neighs:    22846 ave 22846 max 22846 min
Histogram: 1 0 0 0 0 0 0 0 0 0

Total # of neighbors = 22846
Ave neighs/atom = 45.692
Neighbor list builds = 0
Dangerous builds = 0
Memory usage per processor = 1.71601 Mbytes
mystep PotEng Xy Xz Yz Lx 
           7   -7.5374886     0.022407            0            0        7.469 
           7   -7.5374886     0.029876            0            0        7.469 
Loop time of 0.000885963 on 1 procs for 1 steps with 500 atoms

Pair  time (%) = 0.000840187 (94.8332)
Neigh time (%) = 0 (0)
Comm  time (%) = 2.47955e-05 (2.79871)
Outpt time (%) = 4.76837e-06 (0.538213)
Other time (%) = 1.62125e-05 (1.82992)

Nlocal:    500 ave 500 max 500 min
Histogram: 1 0 0 0 0 0 0 0 0 0
Nghost:    2172 ave 2172 max 2172 min
Histogram: 1 0 0 0 0 0 0 0 0 0
Neighs:    22846 ave 22846 max 22846 min
Histogram: 1 0 0 0 0 0 0 0 0 0

Total # of neighbors = 22846
Ave neighs/atom = 45.692
Neighbor list builds = 0
Dangerous builds = 0
WARNING: No fixes defined, atoms won't move (verlet.cpp:52)
Memory usage per processor = 1.71601 Mbytes
mystep PotEng Xy Xz Yz Lx 
           7   -7.5363909     0.029876            0            0        7.469 
Loop time of 0 on 1 procs for 0 steps with 500 atoms

Pair  time (%) = 0 (0)
Neigh time (%) = 0 (0)
Comm  time (%) = 0 (0)
Outpt time (%) = 0 (0)
Other time (%) = 0 (0)

Nlocal:    500 ave 500 max 500 min
Histogram: 1 0 0 0 0 0 0 0 0 0
Nghost:    2172 ave 2172 max 2172 min
Histogram: 1 0 0 0 0 0 0 0 0 0
Neighs:    22848 ave 22848 max 22848 min
Histogram: 1 0 0 0 0 0 0 0 0 0

Total # of neighbors = 22848
Ave neighs/atom = 45.696
Neighbor list builds = 0
Dangerous builds = 0
WARNING: Resetting reneighboring criteria during minimization (min.cpp:166)
Memory usage per processor = 2.43699 Mbytes
mystep PotEng Xy Xz Yz Lx 
           8   -7.5363909     0.029876            0            0        7.469 
           8   -7.5364087     0.029876            0            0        7.469 
Loop time of 0.233447 on 1 procs for 28 steps with 500 atoms

Minimization stats:
  Stopping criterion = energy tolerance
  Energy initial, next-to-last, final = 
        -7.53639094999     -7.53640860694     -7.53640868106
  Force two-norm initial, final = 1.50163 0.122608
  Force max component initial, final = 0.163014 0.019141
  Final line search alpha, max atom move = 0.00195312 3.73849e-05
  Iterations, force evaluations = 28 264

Pair  time (%) = 0.223214 (95.6167)
Neigh time (%) = 0 (0)
Comm  time (%) = 0.00662088 (2.83614)
Outpt time (%) = 0 (0)
Other time (%) = 0.0036118 (1.54716)

Nlocal:    500 ave 500 max 500 min
Histogram: 1 0 0 0 0 0 0 0 0 0
Nghost:    2172 ave 2172 max 2172 min
Histogram: 1 0 0 0 0 0 0 0 0 0
Neighs:    22848 ave 22848 max 22848 min
Histogram: 1 0 0 0 0 0 0 0 0 0

Total # of neighbors = 22848
Ave neighs/atom = 45.696
Neighbor list builds = 0
Dangerous builds = 0
WARNING: No fixes defined, atoms won't move (verlet.cpp:52)
Memory usage per processor = 1.71601 Mbytes
mystep PotEng Xy Xz Yz Lx 
           8   -7.5364087     0.029876            0            0        7.469 
Loop time of 0 on 1 procs for 0 steps with 500 atoms

Pair  time (%) = 0 (0)
Neigh time (%) = 0 (0)
Comm  time (%) = 0 (0)
Outpt time (%) = 0 (0)
Other time (%) = 0 (0)

Nlocal:    500 ave 500 max 500 min
Histogram: 1 0 0 0 0 0 0 0 0 0
Nghost:    2170 ave 2170 max 2170 min
Histogram: 1 0 0 0 0 0 0 0 0 0
Neighs:    22843 ave 22843 max 22843 min
Histogram: 1 0 0 0 0 0 0 0 0 0

Total # of neighbors = 22843
Ave neighs/atom = 45.686
Neighbor list builds = 0
Dangerous builds = 0
Memory usage per processor = 1.71601 Mbytes
mystep PotEng Xy Xz Yz Lx 
           9   -7.5364087     0.029876            0            0        7.469 
           9   -7.5364087     0.037345            0            0        7.469 
Loop time of 0.000885963 on 1 procs for 1 steps with 500 atoms

Pair  time (%) = 0.000841141 (94.9408)
Neigh time (%) = 0 (0)
Comm  time (%) = 2.59876e-05 (2.93326)
Outpt time (%) = 4.76837e-06 (0.538213)
Other time (%) = 1.40667e-05 (1.58773)

Nlocal:    500 ave 500 max 500 min
Histogram: 1 0 0 0 0 0 0 0 0 0
Nghost:    2170 ave 2170 max 2170 min
Histogram: 1 0 0 0 0 0 0 0 0 0
Neighs:    22843 ave 22843 max 22843 min
Histogram: 1 0 0 0 0 0 0 0 0 0

Total # of neighbors = 22843
Ave neighs/atom = 45.686
Neighbor list builds = 0
Dangerous builds = 0
WARNING: No fixes defined, atoms won't move (verlet.cpp:52)
Memory usage per processor = 1.71601 Mbytes
mystep PotEng Xy Xz Yz Lx 
           9    -7.535301     0.037345            0            0        7.469 
Loop time of 0 on 1 procs for 0 steps with 500 atoms

Pair  time (%) = 0 (0)
Neigh time (%) = 0 (0)
Comm  time (%) = 0 (0)
Outpt time (%) = 0 (0)
Other time (%) = 0 (0)

Nlocal:    500 ave 500 max 500 min
Histogram: 1 0 0 0 0 0 0 0 0 0
Nghost:    2170 ave 2170 max 2170 min
Histogram: 1 0 0 0 0 0 0 0 0 0
Neighs:    22857 ave 22857 max 22857 min
Histogram: 1 0 0 0 0 0 0 0 0 0

Total # of neighbors = 22857
Ave neighs/atom = 45.714
Neighbor list builds = 0
Dangerous builds = 0
WARNING: Resetting reneighboring criteria during minimization (min.cpp:166)
Memory usage per processor = 2.43699 Mbytes
mystep PotEng Xy Xz Yz Lx 
          10    -7.535301     0.037345            0            0        7.469 
          10   -7.5353218     0.037345            0            0        7.469 
Loop time of 0.264996 on 1 procs for 32 steps with 500 atoms

Minimization stats:
  Stopping criterion = energy tolerance
  Energy initial, next-to-last, final = 
        -7.53530103661     -7.53532172072     -7.53532178126
  Force two-norm initial, final = 1.52177 0.115894
  Force max component initial, final = 0.167486 0.0170225
  Final line search alpha, max atom move = 0.00195312 3.3247e-05
  Iterations, force evaluations = 32 300

Pair  time (%) = 0.253352 (95.6059)
Neigh time (%) = 0 (0)
Comm  time (%) = 0.00751519 (2.83596)
Outpt time (%) = 0 (0)
Other time (%) = 0.00412893 (1.55811)

Nlocal:    500 ave 500 max 500 min
Histogram: 1 0 0 0 0 0 0 0 0 0
Nghost:    2170 ave 2170 max 2170 min
Histogram: 1 0 0 0 0 0 0 0 0 0
Neighs:    22857 ave 22857 max 22857 min
Histogram: 1 0 0 0 0 0 0 0 0 0

Total # of neighbors = 22857
Ave neighs/atom = 45.714
Neighbor list builds = 0
Dangerous builds = 0
WARNING: No fixes defined, atoms won't move (verlet.cpp:52)
Memory usage per processor = 1.71601 Mbytes
mystep PotEng Xy Xz Yz Lx 
          10   -7.5353218     0.037345            0            0        7.469 
Loop time of 9.53674e-07 on 1 procs for 0 steps with 500 atoms

Pair  time (%) = 0 (0)
Neigh time (%) = 0 (0)
Comm  time (%) = 0 (0)
Outpt time (%) = 0 (0)
Other time (%) = 9.53674e-07 (100)

Nlocal:    500 ave 500 max 500 min
Histogram: 1 0 0 0 0 0 0 0 0 0
Nghost:    2170 ave 2170 max 2170 min
Histogram: 1 0 0 0 0 0 0 0 0 0
Neighs:    22848 ave 22848 max 22848 min
Histogram: 1 0 0 0 0 0 0 0 0 0

Total # of neighbors = 22848
Ave neighs/atom = 45.696
Neighbor list builds = 0
Dangerous builds = 0
Memory usage per processor = 1.71601 Mbytes
mystep PotEng Xy Xz Yz Lx 
          11   -7.5353218     0.037345            0            0        7.469 
          11   -7.5353218     0.044814            0            0        7.469 
Loop time of 0.000892162 on 1 procs for 1 steps with 500 atoms

Pair  time (%) = 0.000845909 (94.8156)
Neigh time (%) = 0 (0)
Comm  time (%) = 2.59876e-05 (2.91288)
Outpt time (%) = 5.96046e-06 (0.668092)
Other time (%) = 1.43051e-05 (1.60342)

Nlocal:    500 ave 500 max 500 min
Histogram: 1 0 0 0 0 0 0 0 0 0
Nghost:    2170 ave 2170 max 2170 min
Histogram: 1 0 0 0 0 0 0 0 0 0
Neighs:    22848 ave 22848 max 22848 min
Histogram: 1 0 0 0 0 0 0 0 0 0

Total # of neighbors = 22848
Ave neighs/atom = 45.696
Neighbor list builds = 0
Dangerous builds = 0
WARNING: No fixes defined, atoms won't move (verlet.cpp:52)
Memory usage per processor = 1.71601 Mbytes
mystep PotEng Xy Xz Yz Lx 
          11   -7.5342043     0.044814            0            0        7.469 
Loop time of 9.53674e-07 on 1 procs for 0 steps with 500 atoms

Pair  time (%) = 0 (0)
Neigh time (%) = 0 (0)
Comm  time (%) = 0 (0)
Outpt time (%) = 0 (0)
Other time (%) = 9.53674e-07 (100)

Nlocal:    500 ave 500 max 500 min
Histogram: 1 0 0 0 0 0 0 0 0 0
Nghost:    2170 ave 2170 max 2170 min
Histogram: 1 0 0 0 0 0 0 0 0 0
Neighs:    22843 ave 22843 max 22843 min
Histogram: 1 0 0 0 0 0 0 0 0 0

Total # of neighbors = 22843
Ave neighs/atom = 45.686
Neighbor list builds = 0
Dangerous builds = 0
WARNING: Resetting reneighboring criteria during minimization (min.cpp:166)
Memory usage per processor = 2.43699 Mbytes
mystep PotEng Xy Xz Yz Lx 
          12   -7.5342043     0.044814            0            0        7.469 
          12   -7.5342268     0.044814            0            0        7.469 
Loop time of 0.295182 on 1 procs for 36 steps with 500 atoms

Minimization stats:
  Stopping criterion = energy tolerance
  Energy initial, next-to-last, final = 
         -7.5342042794     -7.53422676273     -7.53422681465
  Force two-norm initial, final = 1.52126 0.121721
  Force max component initial, final = 0.160527 0.0147382
  Final line search alpha, max atom move = 0.000976562 1.43927e-05
  Iterations, force evaluations = 36 334

Pair  time (%) = 0.282273 (95.6266)
Neigh time (%) = 0 (0)
Comm  time (%) = 0.00831556 (2.8171)
Outpt time (%) = 0 (0)
Other time (%) = 0.00459385 (1.55628)

Nlocal:    500 ave 500 max 500 min
Histogram: 1 0 0 0 0 0 0 0 0 0
Nghost:    2170 ave 2170 max 2170 min
Histogram: 1 0 0 0 0 0 0 0 0 0
Neighs:    22843 ave 22843 max 22843 min
Histogram: 1 0 0 0 0 0 0 0 0 0

Total # of neighbors = 22843
Ave neighs/atom = 45.686
Neighbor list builds = 0
Dangerous builds = 0
WARNING: No fixes defined, atoms won't move (verlet.cpp:52)
Memory usage per processor = 1.71601 Mbytes
mystep PotEng Xy Xz Yz Lx 
          12   -7.5342268     0.044814            0            0        7.469 
Loop time of 9.53674e-07 on 1 procs for 0 steps with 500 atoms

Pair  time (%) = 0 (0)
Neigh time (%) = 0 (0)
Comm  time (%) = 0 (0)
Outpt time (%) = 0 (0)
Other time (%) = 9.53674e-07 (100)

Nlocal:    500 ave 500 max 500 min
Histogram: 1 0 0 0 0 0 0 0 0 0
Nghost:    2170 ave 2170 max 2170 min
Histogram: 1 0 0 0 0 0 0 0 0 0
Neighs:    22842 ave 22842 max 22842 min
Histogram: 1 0 0 0 0 0 0 0 0 0

Total # of neighbors = 22842
Ave neighs/atom = 45.684
Neighbor list builds = 0
Dangerous builds = 0
Memory usage per processor = 1.71601 Mbytes
mystep PotEng Xy Xz Yz Lx 
          13   -7.5342268     0.044814            0            0        7.469 
          13   -7.5342268     0.052283            0            0        7.469 
Loop time of 0.00089097 on 1 procs for 1 steps with 500 atoms

Pair  time (%) = 0.000846148 (94.9692)
Neigh time (%) = 0 (0)
Comm  time (%) = 2.59876e-05 (2.91678)
Outpt time (%) = 6.91414e-06 (0.776024)
Other time (%) = 1.19209e-05 (1.33797)

Nlocal:    500 ave 500 max 500 min
Histogram: 1 0 0 0 0 0 0 0 0 0
Nghost:    2170 ave 2170 max 2170 min
Histogram: 1 0 0 0 0 0 0 0 0 0
Neighs:    22842 ave 22842 max 22842 min
Histogram: 1 0 0 0 0 0 0 0 0 0

Total # of neighbors = 22842
Ave neighs/atom = 45.684
Neighbor list builds = 0
Dangerous builds = 0
WARNING: No fixes defined, atoms won't move (verlet.cpp:52)
Memory usage per processor = 1.71601 Mbytes
mystep PotEng Xy Xz Yz Lx 
          13   -7.5331017     0.052283            0            0        7.469 
Loop time of 0 on 1 procs for 0 steps with 500 atoms

Pair  time (%) = 0 (0)
Neigh time (%) = 0 (0)
Comm  time (%) = 0 (0)
Outpt time (%) = 0 (0)
Other time (%) = 0 (0)

Nlocal:    500 ave 500 max 500 min
Histogram: 1 0 0 0 0 0 0 0 0 0
Nghost:    2170 ave 2170 max 2170 min
Histogram: 1 0 0 0 0 0 0 0 0 0
Neighs:    22843 ave 22843 max 22843 min
Histogram: 1 0 0 0 0 0 0 0 0 0

Total # of neighbors = 22843
Ave neighs/atom = 45.686
Neighbor list builds = 0
Dangerous builds = 0
WARNING: Resetting reneighboring criteria during minimization (min.cpp:166)
Memory usage per processor = 2.43699 Mbytes
mystep PotEng Xy Xz Yz Lx 
          14   -7.5331017     0.052283            0            0        7.469 
          14   -7.5331214     0.052283            0            0        7.469 
Loop time of 0.308403 on 1 procs for 37 steps with 500 atoms

Minimization stats:
  Stopping criterion = energy tolerance
  Energy initial, next-to-last, final = 
        -7.53310173419     -7.53312137212     -7.53312144653
  Force two-norm initial, final = 1.50403 0.198228
  Force max component initial, final = 0.155211 0.0377802
  Final line search alpha, max atom move = 0.00390625 0.000147579
  Iterations, force evaluations = 37 349

Pair  time (%) = 0.294953 (95.6388)
Neigh time (%) = 0 (0)
Comm  time (%) = 0.00869465 (2.81925)
Outpt time (%) = 0 (0)
Other time (%) = 0.0047555 (1.54197)

Nlocal:    500 ave 500 max 500 min
Histogram: 1 0 0 0 0 0 0 0 0 0
Nghost:    2170 ave 2170 max 2170 min
Histogram: 1 0 0 0 0 0 0 0 0 0
Neighs:    22843 ave 22843 max 22843 min
Histogram: 1 0 0 0 0 0 0 0 0 0

Total # of neighbors = 22843
Ave neighs/atom = 45.686
Neighbor list builds = 0
Dangerous builds = 0
WARNING: No fixes defined, atoms won't move (verlet.cpp:52)
Memory usage per processor = 1.71601 Mbytes
mystep PotEng Xy Xz Yz Lx 
          14   -7.5331214     0.052283            0            0        7.469 
Loop time of 9.53674e-07 on 1 procs for 0 steps with 500 atoms

Pair  time (%) = 0 (0)
Neigh time (%) = 0 (0)
Comm  time (%) = 0 (0)
Outpt time (%) = 0 (0)
Other time (%) = 9.53674e-07 (100)

Nlocal:    500 ave 500 max 500 min
Histogram: 1 0 0 0 0 0 0 0 0 0
Nghost:    2174 ave 2174 max 2174 min
Histogram: 1 0 0 0 0 0 0 0 0 0
Neighs:    22838 ave 22838 max 22838 min
Histogram: 1 0 0 0 0 0 0 0 0 0

Total # of neighbors = 22838
Ave neighs/atom = 45.676
Neighbor list builds = 0
Dangerous builds = 0
Memory usage per processor = 1.71601 Mbytes
mystep PotEng Xy Xz Yz Lx 
          15   -7.5331214     0.052283            0            0        7.469 
          15   -7.5331214     0.059752            0            0        7.469 
Loop time of 0.000886202 on 1 procs for 1 steps with 500 atoms

Pair  time (%) = 0.000843048 (95.1305)
Neigh time (%) = 0 (0)
Comm  time (%) = 2.5034e-05 (2.82486)
Outpt time (%) = 5.00679e-06 (0.564972)
Other time (%) = 1.3113e-05 (1.47969)

Nlocal:    500 ave 500 max 500 min
Histogram: 1 0 0 0 0 0 0 0 0 0
Nghost:    2174 ave 2174 max 2174 min
Histogram: 1 0 0 0 0 0 0 0 0 0
Neighs:    22838 ave 22838 max 22838 min
Histogram: 1 0 0 0 0 0 0 0 0 0

Total # of neighbors = 22838
Ave neighs/atom = 45.676
Neighbor list builds = 0
Dangerous builds = 0
WARNING: No fixes defined, atoms won't move (verlet.cpp:52)
Memory usage per processor = 1.71601 Mbytes
mystep PotEng Xy Xz Yz Lx 
          15   -7.5319866     0.059752            0            0        7.469 
Loop time of 0 on 1 procs for 0 steps with 500 atoms

Pair  time (%) = 0 (0)
Neigh time (%) = 0 (0)
Comm  time (%) = 0 (0)
Outpt time (%) = 0 (0)
Other time (%) = 0 (0)

Nlocal:    500 ave 500 max 500 min
Histogram: 1 0 0 0 0 0 0 0 0 0
Nghost:    2174 ave 2174 max 2174 min
Histogram: 1 0 0 0 0 0 0 0 0 0
Neighs:    22843 ave 22843 max 22843 min
Histogram: 1 0 0 0 0 0 0 0 0 0

Total # of neighbors = 22843
Ave neighs/atom = 45.686
Neighbor list builds = 0
Dangerous builds = 0
WARNING: Resetting reneighboring criteria during minimization (min.cpp:166)
Memory usage per processor = 2.43699 Mbytes
mystep PotEng Xy Xz Yz Lx 
          16   -7.5319866     0.059752            0            0        7.469 
          16   -7.5320048     0.059752            0            0        7.469 
Loop time of 0.309603 on 1 procs for 37 steps with 500 atoms

Minimization stats:
  Stopping criterion = energy tolerance
  Energy initial, next-to-last, final = 
        -7.53198659174     -7.53200479456      -7.5320048335
  Force two-norm initial, final = 1.56235 0.204357
  Force max component initial, final = 0.174736 0.0320019
  Final line search alpha, max atom move = 0.00123978 3.96752e-05
  Iterations, force evaluations = 37 350

Pair  time (%) = 0.296014 (95.6108)
Neigh time (%) = 0 (0)
Comm  time (%) = 0.00878406 (2.8372)
Outpt time (%) = 0 (0)
Other time (%) = 0.00480509 (1.55202)

Nlocal:    500 ave 500 max 500 min
Histogram: 1 0 0 0 0 0 0 0 0 0
Nghost:    2174 ave 2174 max 2174 min
Histogram: 1 0 0 0 0 0 0 0 0 0
Neighs:    22843 ave 22843 max 22843 min
Histogram: 1 0 0 0 0 0 0 0 0 0

Total # of neighbors = 22843
Ave neighs/atom = 45.686
Neighbor list builds = 0
Dangerous builds = 0
WARNING: No fixes defined, atoms won't move (verlet.cpp:52)
Memory usage per processor = 1.71601 Mbytes
mystep PotEng Xy Xz Yz Lx 
          16   -7.5320048     0.059752            0            0        7.469 
Loop time of 0 on 1 procs for 0 steps with 500 atoms

Pair  time (%) = 0 (0)
Neigh time (%) = 0 (0)
Comm  time (%) = 0 (0)
Outpt time (%) = 0 (0)
Other time (%) = 0 (0)

Nlocal:    500 ave 500 max 500 min
Histogram: 1 0 0 0 0 0 0 0 0 0
Nghost:    2170 ave 2170 max 2170 min
Histogram: 1 0 0 0 0 0 0 0 0 0
Neighs:    22842 ave 22842 max 22842 min
Histogram: 1 0 0 0 0 0 0 0 0 0

Total # of neighbors = 22842
Ave neighs/atom = 45.684
Neighbor list builds = 0
Dangerous builds = 0
Memory usage per processor = 1.71601 Mbytes
mystep PotEng Xy Xz Yz Lx 
          17   -7.5320048     0.059752            0            0        7.469 
          17   -7.5320048     0.067221            0            0        7.469 
Loop time of 0.000885963 on 1 procs for 1 steps with 500 atoms

Pair  time (%) = 0.000842094 (95.0484)
Neigh time (%) = 0 (0)
Comm  time (%) = 2.47955e-05 (2.79871)
Outpt time (%) = 5.00679e-06 (0.565124)
Other time (%) = 1.40667e-05 (1.58773)

Nlocal:    500 ave 500 max 500 min
Histogram: 1 0 0 0 0 0 0 0 0 0
Nghost:    2170 ave 2170 max 2170 min
Histogram: 1 0 0 0 0 0 0 0 0 0
Neighs:    22842 ave 22842 max 22842 min
Histogram: 1 0 0 0 0 0 0 0 0 0

Total # of neighbors = 22842
Ave neighs/atom = 45.684
Neighbor list builds = 0
Dangerous builds = 0
WARNING: No fixes defined, atoms won't move (verlet.cpp:52)
Memory usage per processor = 1.71601 Mbytes
mystep PotEng Xy Xz Yz Lx 
          17   -7.5308598     0.067221            0            0        7.469 
Loop time of 0 on 1 procs for 0 steps with 500 atoms

Pair  time (%) = 0 (0)
Neigh time (%) = 0 (0)
Comm  time (%) = 0 (0)
Outpt time (%) = 0 (0)
Other time (%) = 0 (0)

Nlocal:    500 ave 500 max 500 min
Histogram: 1 0 0 0 0 0 0 0 0 0
Nghost:    2170 ave 2170 max 2170 min
Histogram: 1 0 0 0 0 0 0 0 0 0
Neighs:    22845 ave 22845 max 22845 min
Histogram: 1 0 0 0 0 0 0 0 0 0

Total # of neighbors = 22845
Ave neighs/atom = 45.69
Neighbor list builds = 0
Dangerous builds = 0
WARNING: Resetting reneighboring criteria during minimization (min.cpp:166)
Memory usage per processor = 2.43699 Mbytes
mystep PotEng Xy Xz Yz Lx 
          18   -7.5308598     0.067221            0            0        7.469 
          18   -7.5308804     0.067221            0            0        7.469 
Loop time of 0.289211 on 1 procs for 35 steps with 500 atoms

Minimization stats:
  Stopping criterion = energy tolerance
  Energy initial, next-to-last, final = 
        -7.53085977993     -7.53088029113     -7.53088035687
  Force two-norm initial, final = 1.56099 0.129532
  Force max component initial, final = 0.175333 0.0309273
  Final line search alpha, max atom move = 0.00195312 6.04048e-05
  Iterations, force evaluations = 35 327

Pair  time (%) = 0.27655 (95.6222)
Neigh time (%) = 0 (0)
Comm  time (%) = 0.00819707 (2.83429)
Outpt time (%) = 0 (0)
Other time (%) = 0.00446391 (1.54348)

Nlocal:    500 ave 500 max 500 min
Histogram: 1 0 0 0 0 0 0 0 0 0
Nghost:    2170 ave 2170 max 2170 min
Histogram: 1 0 0 0 0 0 0 0 0 0
Neighs:    22845 ave 22845 max 22845 min
Histogram: 1 0 0 0 0 0 0 0 0 0

Total # of neighbors = 22845
Ave neighs/atom = 45.69
Neighbor list builds = 0
Dangerous builds = 0
WARNING: No fixes defined, atoms won't move (verlet.cpp:52)
Memory usage per processor = 1.71601 Mbytes
mystep PotEng Xy Xz Yz Lx 
          18   -7.5308804     0.067221            0            0        7.469 
Loop time of 0 on 1 procs for 0 steps with 500 atoms

Pair  time (%) = 0 (0)
Neigh time (%) = 0 (0)
Comm  time (%) = 0 (0)
Outpt time (%) = 0 (0)
Other time (%) = 0 (0)

Nlocal:    500 ave 500 max 500 min
Histogram: 1 0 0 0 0 0 0 0 0 0
Nghost:    2174 ave 2174 max 2174 min
Histogram: 1 0 0 0 0 0 0 0 0 0
Neighs:    22848 ave 22848 max 22848 min
Histogram: 1 0 0 0 0 0 0 0 0 0

Total # of neighbors = 22848
Ave neighs/atom = 45.696
Neighbor list builds = 0
Dangerous builds = 0
Memory usage per processor = 1.71601 Mbytes
mystep PotEng Xy Xz Yz Lx 
          19   -7.5308804     0.067221            0            0        7.469 
          19   -7.5308804      0.07469            0            0        7.469 
Loop time of 0.00088501 on 1 procs for 1 steps with 500 atoms

Pair  time (%) = 0.000841856 (95.1239)
Neigh time (%) = 0 (0)
Comm  time (%) = 2.5034e-05 (2.82866)
Outpt time (%) = 6.19888e-06 (0.700431)
Other time (%) = 1.19209e-05 (1.34698)

Nlocal:    500 ave 500 max 500 min
Histogram: 1 0 0 0 0 0 0 0 0 0
Nghost:    2174 ave 2174 max 2174 min
Histogram: 1 0 0 0 0 0 0 0 0 0
Neighs:    22848 ave 22848 max 22848 min
Histogram: 1 0 0 0 0 0 0 0 0 0

Total # of neighbors = 22848
Ave neighs/atom = 45.696
Neighbor list builds = 0
Dangerous builds = 0
WARNING: No fixes defined, atoms won't move (verlet.cpp:52)
Memory usage per processor = 1.71601 Mbytes
mystep PotEng Xy Xz Yz Lx 
          19   -7.5297277      0.07469            0            0        7.469 
Loop time of 0 on 1 procs for 0 steps with 500 atoms

Pair  time (%) = 0 (0)
Neigh time (%) = 0 (0)
Comm  time (%) = 0 (0)
Outpt time (%) = 0 (0)
Other time (%) = 0 (0)

Nlocal:    500 ave 500 max 500 min
Histogram: 1 0 0 0 0 0 0 0 0 0
Nghost:    2174 ave 2174 max 2174 min
Histogram: 1 0 0 0 0 0 0 0 0 0
Neighs:    22849 ave 22849 max 22849 min
Histogram: 1 0 0 0 0 0 0 0 0 0

Total # of neighbors = 22849
Ave neighs/atom = 45.698
Neighbor list builds = 0
Dangerous builds = 0
WARNING: Resetting reneighboring criteria during minimization (min.cpp:166)
Memory usage per processor = 2.43699 Mbytes
mystep PotEng Xy Xz Yz Lx 
          20   -7.5297277      0.07469            0            0        7.469 
          20   -7.5297506      0.07469            0            0        7.469 
Loop time of 0.44841 on 1 procs for 54 steps with 500 atoms

Minimization stats:
  Stopping criterion = energy tolerance
  Energy initial, next-to-last, final = 
        -7.52972770259     -7.52975051023     -7.52975056125
  Force two-norm initial, final = 1.51603 0.100163
  Force max component initial, final = 0.15768 0.0190628
  Final line search alpha, max atom move = 0.00195312 3.72321e-05
  Iterations, force evaluations = 54 508

Pair  time (%) = 0.4289 (95.649)
Neigh time (%) = 0 (0)
Comm  time (%) = 0.0125186 (2.79179)
Outpt time (%) = 0 (0)
Other time (%) = 0.00699162 (1.5592)

Nlocal:    500 ave 500 max 500 min
Histogram: 1 0 0 0 0 0 0 0 0 0
Nghost:    2174 ave 2174 max 2174 min
Histogram: 1 0 0 0 0 0 0 0 0 0
Neighs:    22849 ave 22849 max 22849 min
Histogram: 1 0 0 0 0 0 0 0 0 0

Total # of neighbors = 22849
Ave neighs/atom = 45.698
Neighbor list builds = 0
Dangerous builds = 0
WARNING: No fixes defined, atoms won't move (verlet.cpp:52)
Memory usage per processor = 1.71601 Mbytes
mystep PotEng Xy Xz Yz Lx 
          20   -7.5297506      0.07469            0            0        7.469 
Loop time of 0 on 1 procs for 0 steps with 500 atoms

Pair  time (%) = 0 (0)
Neigh time (%) = 0 (0)
Comm  time (%) = 0 (0)
Outpt time (%) = 0 (0)
Other time (%) = 0 (0)

Nlocal:    500 ave 500 max 500 min
Histogram: 1 0 0 0 0 0 0 0 0 0
Nghost:    2166 ave 2166 max 2166 min
Histogram: 1 0 0 0 0 0 0 0 0 0
Neighs:    22867 ave 22867 max 22867 min
Histogram: 1 0 0 0 0 0 0 0 0 0

Total # of neighbors = 22867
Ave neighs/atom = 45.734
Neighbor list builds = 0
Dangerous builds = 0
Memory usage per processor = 1.71601 Mbytes
mystep PotEng Xy Xz Yz Lx 
          21   -7.5297506      0.07469            0            0        7.469 
          21   -7.5297506     0.082159            0            0        7.469 
Loop time of 0.000887871 on 1 procs for 1 steps with 500 atoms

Pair  time (%) = 0.000843048 (94.9517)
Neigh time (%) = 0 (0)
Comm  time (%) = 2.5034e-05 (2.81955)
Outpt time (%) = 5.96046e-06 (0.671321)
Other time (%) = 1.38283e-05 (1.55747)

Nlocal:    500 ave 500 max 500 min
Histogram: 1 0 0 0 0 0 0 0 0 0
Nghost:    2166 ave 2166 max 2166 min
Histogram: 1 0 0 0 0 0 0 0 0 0
Neighs:    22867 ave 22867 max 22867 min
Histogram: 1 0 0 0 0 0 0 0 0 0

Total # of neighbors = 22867
Ave neighs/atom = 45.734
Neighbor list builds = 0
Dangerous builds = 0
WARNING: No fixes defined, atoms won't move (verlet.cpp:52)
Memory usage per processor = 1.71601 Mbytes
mystep PotEng Xy Xz Yz Lx 
          21   -7.5285904     0.082159            0            0        7.469 
Loop time of 0 on 1 procs for 0 steps with 500 atoms

Pair  time (%) = 0 (0)
Neigh time (%) = 0 (0)
Comm  time (%) = 0 (0)
Outpt time (%) = 0 (0)
Other time (%) = 0 (0)

Nlocal:    500 ave 500 max 500 min
Histogram: 1 0 0 0 0 0 0 0 0 0
Nghost:    2166 ave 2166 max 2166 min
Histogram: 1 0 0 0 0 0 0 0 0 0
Neighs:    22871 ave 22871 max 22871 min
Histogram: 1 0 0 0 0 0 0 0 0 0

Total # of neighbors = 22871
Ave neighs/atom = 45.742
Neighbor list builds = 0
Dangerous builds = 0
WARNING: Resetting reneighboring criteria during minimization (min.cpp:166)
Memory usage per processor = 2.43699 Mbytes
mystep PotEng Xy Xz Yz Lx 
          22   -7.5285904     0.082159            0            0        7.469 
          22   -7.5286123     0.082159            0            0        7.469 
Loop time of 0.405774 on 1 procs for 48 steps with 500 atoms

Minimization stats:
  Stopping criterion = energy tolerance
  Energy initial, next-to-last, final = 
        -7.52859039807      -7.5286122301      -7.5286122824
  Force two-norm initial, final = 1.51666 0.101344
  Force max component initial, final = 0.158057 0.0258518
  Final line search alpha, max atom move = 0.00195312 5.04919e-05
  Iterations, force evaluations = 48 459

Pair  time (%) = 0.388182 (95.6647)
Neigh time (%) = 0 (0)
Comm  time (%) = 0.0113356 (2.79358)
Outpt time (%) = 0 (0)
Other time (%) = 0.00625587 (1.54171)

Nlocal:    500 ave 500 max 500 min
Histogram: 1 0 0 0 0 0 0 0 0 0
Nghost:    2166 ave 2166 max 2166 min
Histogram: 1 0 0 0 0 0 0 0 0 0
Neighs:    22871 ave 22871 max 22871 min
Histogram: 1 0 0 0 0 0 0 0 0 0

Total # of neighbors = 22871
Ave neighs/atom = 45.742
Neighbor list builds = 0
Dangerous builds = 0
WARNING: No fixes defined, atoms won't move (verlet.cpp:52)
Memory usage per processor = 1.71601 Mbytes
mystep PotEng Xy Xz Yz Lx 
          22   -7.5286123     0.082159            0            0        7.469 
Loop time of 9.53674e-07 on 1 procs for 0 steps with 500 atoms

Pair  time (%) = 0 (0)
Neigh time (%) = 0 (0)
Comm  time (%) = 0 (0)
Outpt time (%) = 0 (0)
Other time (%) = 9.53674e-07 (100)

Nlocal:    500 ave 500 max 500 min
Histogram: 1 0 0 0 0 0 0 0 0 0
Nghost:    2166 ave 2166 max 2166 min
Histogram: 1 0 0 0 0 0 0 0 0 0
Neighs:    22876 ave 22876 max 22876 min
Histogram: 1 0 0 0 0 0 0 0 0 0

Total # of neighbors = 22876
Ave neighs/atom = 45.752
Neighbor list builds = 0
Dangerous builds = 0
Memory usage per processor = 1.71601 Mbytes
mystep PotEng Xy Xz Yz Lx 
          23   -7.5286123     0.082159            0            0        7.469 
          23   -7.5286123     0.089628            0            0        7.469 
Loop time of 0.000888824 on 1 procs for 1 steps with 500 atoms

Pair  time (%) = 0.000845194 (95.0912)
Neigh time (%) = 0 (0)
Comm  time (%) = 2.47955e-05 (2.7897)
Outpt time (%) = 5.96046e-06 (0.670601)
Other time (%) = 1.28746e-05 (1.4485)

Nlocal:    500 ave 500 max 500 min
Histogram: 1 0 0 0 0 0 0 0 0 0
Nghost:    2166 ave 2166 max 2166 min
Histogram: 1 0 0 0 0 0 0 0 0 0
Neighs:    22876 ave 22876 max 22876 min
Histogram: 1 0 0 0 0 0 0 0 0 0

Total # of neighbors = 22876
Ave neighs/atom = 45.752
Neighbor list builds = 0
Dangerous builds = 0
WARNING: No fixes defined, atoms won't move (verlet.cpp:52)
Memory usage per processor = 1.71601 Mbytes
mystep PotEng Xy Xz Yz Lx 
          23   -7.5274454     0.089628            0            0        7.469 
Loop time of 0 on 1 procs for 0 steps with 500 atoms

Pair  time (%) = 0 (0)
Neigh time (%) = 0 (0)
Comm  time (%) = 0 (0)
Outpt time (%) = 0 (0)
Other time (%) = 0 (0)

Nlocal:    500 ave 500 max 500 min
Histogram: 1 0 0 0 0 0 0 0 0 0
Nghost:    2166 ave 2166 max 2166 min
Histogram: 1 0 0 0 0 0 0 0 0 0
Neighs:    22876 ave 22876 max 22876 min
Histogram: 1 0 0 0 0 0 0 0 0 0

Total # of neighbors = 22876
Ave neighs/atom = 45.752
Neighbor list builds = 0
Dangerous builds = 0
WARNING: Resetting reneighboring criteria during minimization (min.cpp:166)
Memory usage per processor = 2.43699 Mbytes
mystep PotEng Xy Xz Yz Lx 
          24   -7.5274454     0.089628            0            0        7.469 
          24   -7.5274685     0.089628            0            0        7.469 
Loop time of 0.273948 on 1 procs for 33 steps with 500 atoms

Minimization stats:
  Stopping criterion = energy tolerance
  Energy initial, next-to-last, final = 
        -7.52744540642     -7.52746850052       -7.527468549
  Force two-norm initial, final = 1.51429 0.146019
  Force max component initial, final = 0.166995 0.0310676
  Final line search alpha, max atom move = 0.000976562 3.03395e-05
  Iterations, force evaluations = 33 309

Pair  time (%) = 0.262008 (95.6414)
Neigh time (%) = 0 (0)
Comm  time (%) = 0.00768423 (2.80499)
Outpt time (%) = 0 (0)
Other time (%) = 0.00425601 (1.55358)

Nlocal:    500 ave 500 max 500 min
Histogram: 1 0 0 0 0 0 0 0 0 0
Nghost:    2166 ave 2166 max 2166 min
Histogram: 1 0 0 0 0 0 0 0 0 0
Neighs:    22876 ave 22876 max 22876 min
Histogram: 1 0 0 0 0 0 0 0 0 0

Total # of neighbors = 22876
Ave neighs/atom = 45.752
Neighbor list builds = 0
Dangerous builds = 0
WARNING: No fixes defined, atoms won't move (verlet.cpp:52)
Memory usage per processor = 1.71601 Mbytes
mystep PotEng Xy Xz Yz Lx 
          24   -7.5274685     0.089628            0            0        7.469 
Loop time of 9.53674e-07 on 1 procs for 0 steps with 500 atoms

Pair  time (%) = 0 (0)
Neigh time (%) = 0 (0)
Comm  time (%) = 0 (0)
Outpt time (%) = 0 (0)
Other time (%) = 9.53674e-07 (100)

Nlocal:    500 ave 500 max 500 min
Histogram: 1 0 0 0 0 0 0 0 0 0
Nghost:    2168 ave 2168 max 2168 min
Histogram: 1 0 0 0 0 0 0 0 0 0
Neighs:    22878 ave 22878 max 22878 min
Histogram: 1 0 0 0 0 0 0 0 0 0

Total # of neighbors = 22878
Ave neighs/atom = 45.756
Neighbor list builds = 0
Dangerous builds = 0
Memory usage per processor = 1.71601 Mbytes
mystep PotEng Xy Xz Yz Lx 
          25   -7.5274685     0.089628            0            0        7.469 
          25   -7.5274685     0.097097            0            0        7.469 
Loop time of 0.000888824 on 1 procs for 1 steps with 500 atoms

Pair  time (%) = 0.000844002 (94.9571)
Neigh time (%) = 0 (0)
Comm  time (%) = 2.47955e-05 (2.7897)
Outpt time (%) = 5.96046e-06 (0.670601)
Other time (%) = 1.40667e-05 (1.58262)

Nlocal:    500 ave 500 max 500 min
Histogram: 1 0 0 0 0 0 0 0 0 0
Nghost:    2168 ave 2168 max 2168 min
Histogram: 1 0 0 0 0 0 0 0 0 0
Neighs:    22878 ave 22878 max 22878 min
Histogram: 1 0 0 0 0 0 0 0 0 0

Total # of neighbors = 22878
Ave neighs/atom = 45.756
Neighbor list builds = 0
Dangerous builds = 0
WARNING: No fixes defined, atoms won't move (verlet.cpp:52)
Memory usage per processor = 1.71601 Mbytes
mystep PotEng Xy Xz Yz Lx 
          25   -7.5262957     0.097097            0            0        7.469 
Loop time of 0 on 1 procs for 0 steps with 500 atoms

Pair  time (%) = 0 (0)
Neigh time (%) = 0 (0)
Comm  time (%) = 0 (0)
Outpt time (%) = 0 (0)
Other time (%) = 0 (0)

Nlocal:    500 ave 500 max 500 min
Histogram: 1 0 0 0 0 0 0 0 0 0
Nghost:    2168 ave 2168 max 2168 min
Histogram: 1 0 0 0 0 0 0 0 0 0
Neighs:    22877 ave 22877 max 22877 min
Histogram: 1 0 0 0 0 0 0 0 0 0

Total # of neighbors = 22877
Ave neighs/atom = 45.754
Neighbor list builds = 0
Dangerous builds = 0
WARNING: Resetting reneighboring criteria during minimization (min.cpp:166)
Memory usage per processor = 2.43699 Mbytes
mystep PotEng Xy Xz Yz Lx 
          26   -7.5262957     0.097097            0            0        7.469 
          26   -7.5263263     0.097097            0            0        7.469 
Loop time of 0.461264 on 1 procs for 56 steps with 500 atoms

Minimization stats:
  Stopping criterion = energy tolerance
  Energy initial, next-to-last, final = 
        -7.52629567477     -7.52632628228      -7.5263263278
  Force two-norm initial, final = 1.52748 0.101542
  Force max component initial, final = 0.159995 0.0187485
  Final line search alpha, max atom move = 0.00195312 3.66182e-05
  Iterations, force evaluations = 56 521

Pair  time (%) = 0.441137 (95.6365)
Neigh time (%) = 0 (0)
Comm  time (%) = 0.013025 (2.82377)
Outpt time (%) = 0 (0)
Other time (%) = 0.00710225 (1.53974)

Nlocal:    500 ave 500 max 500 min
Histogram: 1 0 0 0 0 0 0 0 0 0
Nghost:    2168 ave 2168 max 2168 min
Histogram: 1 0 0 0 0 0 0 0 0 0
Neighs:    22877 ave 22877 max 22877 min
Histogram: 1 0 0 0 0 0 0 0 0 0

Total # of neighbors = 22877
Ave neighs/atom = 45.754
Neighbor list builds = 0
Dangerous builds = 0
WARNING: No fixes defined, atoms won't move (verlet.cpp:52)
Memory usage per processor = 1.71601 Mbytes
mystep PotEng Xy Xz Yz Lx 
          26   -7.5263263     0.097097            0            0        7.469 
Loop time of 0 on 1 procs for 0 steps with 500 atoms

Pair  time (%) = 0 (0)
Neigh time (%) = 0 (0)
Comm  time (%) = 0 (0)
Outpt time (%) = 0 (0)
Other time (%) = 0 (0)

Nlocal:    500 ave 500 max 500 min
Histogram: 1 0 0 0 0 0 0 0 0 0
Nghost:    2172 ave 2172 max 2172 min
Histogram: 1 0 0 0 0 0 0 0 0 0
Neighs:    22881 ave 22881 max 22881 min
Histogram: 1 0 0 0 0 0 0 0 0 0

Total # of neighbors = 22881
Ave neighs/atom = 45.762
Neighbor list builds = 0
Dangerous builds = 0
Memory usage per processor = 1.71601 Mbytes
mystep PotEng Xy Xz Yz Lx 
          27   -7.5263263     0.097097            0            0        7.469 
          27   -7.5263263     0.104566            0            0        7.469 
Loop time of 0.000887871 on 1 procs for 1 steps with 500 atoms

Pair  time (%) = 0.000845194 (95.1933)
Neigh time (%) = 0 (0)
Comm  time (%) = 2.47955e-05 (2.7927)
Outpt time (%) = 5.00679e-06 (0.56391)
Other time (%) = 1.28746e-05 (1.45005)

Nlocal:    500 ave 500 max 500 min
Histogram: 1 0 0 0 0 0 0 0 0 0
Nghost:    2172 ave 2172 max 2172 min
Histogram: 1 0 0 0 0 0 0 0 0 0
Neighs:    22881 ave 22881 max 22881 min
Histogram: 1 0 0 0 0 0 0 0 0 0

Total # of neighbors = 22881
Ave neighs/atom = 45.762
Neighbor list builds = 0
Dangerous builds = 0
WARNING: No fixes defined, atoms won't move (verlet.cpp:52)
Memory usage per processor = 1.71601 Mbytes
mystep PotEng Xy Xz Yz Lx 
          27   -7.5251518     0.104566            0            0        7.469 
Loop time of 0 on 1 procs for 0 steps with 500 atoms

Pair  time (%) = 0 (0)
Neigh time (%) = 0 (0)
Comm  time (%) = 0 (0)
Outpt time (%) = 0 (0)
Other time (%) = 0 (0)

Nlocal:    500 ave 500 max 500 min
Histogram: 1 0 0 0 0 0 0 0 0 0
Nghost:    2172 ave 2172 max 2172 min
Histogram: 1 0 0 0 0 0 0 0 0 0
Neighs:    22877 ave 22877 max 22877 min
Histogram: 1 0 0 0 0 0 0 0 0 0

Total # of neighbors = 22877
Ave neighs/atom = 45.754
Neighbor list builds = 0
Dangerous builds = 0
WARNING: Resetting reneighboring criteria during minimization (min.cpp:166)
Memory usage per processor = 2.43699 Mbytes
mystep PotEng Xy Xz Yz Lx 
          28   -7.5251518     0.104566            0            0        7.469 
          28   -7.5251654     0.104566            0            0        7.469 
Loop time of 0.13863 on 1 procs for 16 steps with 500 atoms

Minimization stats:
  Stopping criterion = energy tolerance
  Energy initial, next-to-last, final = 
        -7.52515180649     -7.52516529755     -7.52516536223
  Force two-norm initial, final = 1.53309 0.167877
  Force max component initial, final = 0.155816 0.019151
  Final line search alpha, max atom move = 0.000976562 1.87021e-05
  Iterations, force evaluations = 16 156

Pair  time (%) = 0.132579 (95.6351)
Neigh time (%) = 0 (0)
Comm  time (%) = 0.0039351 (2.83856)
Outpt time (%) = 0 (0)
Other time (%) = 0.00211596 (1.52634)

Nlocal:    500 ave 500 max 500 min
Histogram: 1 0 0 0 0 0 0 0 0 0
Nghost:    2172 ave 2172 max 2172 min
Histogram: 1 0 0 0 0 0 0 0 0 0
Neighs:    22877 ave 22877 max 22877 min
Histogram: 1 0 0 0 0 0 0 0 0 0

Total # of neighbors = 22877
Ave neighs/atom = 45.754
Neighbor list builds = 0
Dangerous builds = 0
WARNING: No fixes defined, atoms won't move (verlet.cpp:52)
Memory usage per processor = 1.71601 Mbytes
mystep PotEng Xy Xz Yz Lx 
          28   -7.5251654     0.104566            0            0        7.469 
Loop time of 0 on 1 procs for 0 steps with 500 atoms

Pair  time (%) = 0 (0)
Neigh time (%) = 0 (0)
Comm  time (%) = 0 (0)
Outpt time (%) = 0 (0)
Other time (%) = 0 (0)

Nlocal:    500 ave 500 max 500 min
Histogram: 1 0 0 0 0 0 0 0 0 0
Nghost:    2172 ave 2172 max 2172 min
Histogram: 1 0 0 0 0 0 0 0 0 0
Neighs:    22874 ave 22874 max 22874 min
Histogram: 1 0 0 0 0 0 0 0 0 0

Total # of neighbors = 22874
Ave neighs/atom = 45.748
Neighbor list builds = 0
Dangerous builds = 0
Memory usage per processor = 1.71601 Mbytes
mystep PotEng Xy Xz Yz Lx 
          29   -7.5251654     0.104566            0            0        7.469 
          29   -7.5251654     0.112035            0            0        7.469 
Loop time of 0.000887871 on 1 procs for 1 steps with 500 atoms

Pair  time (%) = 0.000844002 (95.0591)
Neigh time (%) = 0 (0)
Comm  time (%) = 2.5034e-05 (2.81955)
Outpt time (%) = 5.00679e-06 (0.56391)
Other time (%) = 1.38283e-05 (1.55747)

Nlocal:    500 ave 500 max 500 min
Histogram: 1 0 0 0 0 0 0 0 0 0
Nghost:    2172 ave 2172 max 2172 min
Histogram: 1 0 0 0 0 0 0 0 0 0
Neighs:    22874 ave 22874 max 22874 min
Histogram: 1 0 0 0 0 0 0 0 0 0

Total # of neighbors = 22874
Ave neighs/atom = 45.748
Neighbor list builds = 0
Dangerous builds = 0
WARNING: No fixes defined, atoms won't move (verlet.cpp:52)
Memory usage per processor = 1.71601 Mbytes
mystep PotEng Xy Xz Yz Lx 
          29   -7.5239782     0.112035            0            0        7.469 
Loop time of 0 on 1 procs for 0 steps with 500 atoms

Pair  time (%) = 0 (0)
Neigh time (%) = 0 (0)
Comm  time (%) = 0 (0)
Outpt time (%) = 0 (0)
Other time (%) = 0 (0)

Nlocal:    500 ave 500 max 500 min
Histogram: 1 0 0 0 0 0 0 0 0 0
Nghost:    2172 ave 2172 max 2172 min
Histogram: 1 0 0 0 0 0 0 0 0 0
Neighs:    22878 ave 22878 max 22878 min
Histogram: 1 0 0 0 0 0 0 0 0 0

Total # of neighbors = 22878
Ave neighs/atom = 45.756
Neighbor list builds = 0
Dangerous builds = 0
WARNING: Resetting reneighboring criteria during minimization (min.cpp:166)
Memory usage per processor = 2.43699 Mbytes
mystep PotEng Xy Xz Yz Lx 
          30   -7.5239782     0.112035            0            0        7.469 
          30   -7.5240233     0.112035            0            0        7.469 
Loop time of 0.607306 on 1 procs for 74 steps with 500 atoms

Minimization stats:
  Stopping criterion = energy tolerance
  Energy initial, next-to-last, final = 
        -7.52397817485     -7.52402324414     -7.52402330711
  Force two-norm initial, final = 1.48523 0.156668
  Force max component initial, final = 0.156222 0.0532638
  Final line search alpha, max atom move = 0.00195312 0.000104031
  Iterations, force evaluations = 74 682

Pair  time (%) = 0.576783 (94.9741)
Neigh time (%) = 0.0035162 (0.578983)
Comm  time (%) = 0.0174878 (2.87956)
Outpt time (%) = 0 (0)
Other time (%) = 0.00951886 (1.56739)

Nlocal:    500 ave 500 max 500 min
Histogram: 1 0 0 0 0 0 0 0 0 0
Nghost:    2172 ave 2172 max 2172 min
Histogram: 1 0 0 0 0 0 0 0 0 0
Neighs:    22870 ave 22870 max 22870 min
Histogram: 1 0 0 0 0 0 0 0 0 0

Total # of neighbors = 22870
Ave neighs/atom = 45.74
Neighbor list builds = 2
Dangerous builds = 0
WARNING: No fixes defined, atoms won't move (verlet.cpp:52)
Memory usage per processor = 1.71601 Mbytes
mystep PotEng Xy Xz Yz Lx 
          30   -7.5240233     0.112035            0            0        7.469 
Loop time of 0 on 1 procs for 0 steps with 500 atoms

Pair  time (%) = 0 (0)
Neigh time (%) = 0 (0)
Comm  time (%) = 0 (0)
Outpt time (%) = 0 (0)
Other time (%) = 0 (0)

Nlocal:    500 ave 500 max 500 min
Histogram: 1 0 0 0 0 0 0 0 0 0
Nghost:    2172 ave 2172 max 2172 min
Histogram: 1 0 0 0 0 0 0 0 0 0
Neighs:    22874 ave 22874 max 22874 min
Histogram: 1 0 0 0 0 0 0 0 0 0

Total # of neighbors = 22874
Ave neighs/atom = 45.748
Neighbor list builds = 0
Dangerous builds = 0
Memory usage per processor = 1.71601 Mbytes
mystep PotEng Xy Xz Yz Lx 
          31   -7.5240233     0.112035            0            0        7.469 
          31   -7.5240233     0.119504            0            0        7.469 
Loop time of 0.000887871 on 1 procs for 1 steps with 500 atoms

Pair  time (%) = 0.000844002 (95.0591)
Neigh time (%) = 0 (0)
Comm  time (%) = 2.5034e-05 (2.81955)
Outpt time (%) = 5.00679e-06 (0.56391)
Other time (%) = 1.38283e-05 (1.55747)

Nlocal:    500 ave 500 max 500 min
Histogram: 1 0 0 0 0 0 0 0 0 0
Nghost:    2172 ave 2172 max 2172 min
Histogram: 1 0 0 0 0 0 0 0 0 0
Neighs:    22874 ave 22874 max 22874 min
Histogram: 1 0 0 0 0 0 0 0 0 0

Total # of neighbors = 22874
Ave neighs/atom = 45.748
Neighbor list builds = 0
Dangerous builds = 0
WARNING: No fixes defined, atoms won't move (verlet.cpp:52)
Memory usage per processor = 1.71601 Mbytes
mystep PotEng Xy Xz Yz Lx 
          31   -7.5228414     0.119504            0            0        7.469 
Loop time of 0 on 1 procs for 0 steps with 500 atoms

Pair  time (%) = 0 (0)
Neigh time (%) = 0 (0)
Comm  time (%) = 0 (0)
Outpt time (%) = 0 (0)
Other time (%) = 0 (0)

Nlocal:    500 ave 500 max 500 min
Histogram: 1 0 0 0 0 0 0 0 0 0
Nghost:    2172 ave 2172 max 2172 min
Histogram: 1 0 0 0 0 0 0 0 0 0
Neighs:    22872 ave 22872 max 22872 min
Histogram: 1 0 0 0 0 0 0 0 0 0

Total # of neighbors = 22872
Ave neighs/atom = 45.744
Neighbor list builds = 0
Dangerous builds = 0
WARNING: Resetting reneighboring criteria during minimization (min.cpp:166)
Memory usage per processor = 2.43699 Mbytes
mystep PotEng Xy Xz Yz Lx 
          32   -7.5228414     0.119504            0            0        7.469 
          32   -7.5608703     0.119504            0            0        7.469 
Loop time of 2.5212 on 1 procs for 423 steps with 500 atoms

Minimization stats:
  Stopping criterion = energy tolerance
  Energy initial, next-to-last, final = 
        -7.52284137426     -7.56087026377     -7.56087033408
  Force two-norm initial, final = 1.54233 0.12816
  Force max component initial, final = 0.166041 0.0368938
  Final line search alpha, max atom move = 0.00195312 7.20583e-05
  Iterations, force evaluations = 423 2752

Pair  time (%) = 2.33402 (92.5759)
Neigh time (%) = 0.0724211 (2.87249)
Comm  time (%) = 0.0735803 (2.91846)
Outpt time (%) = 0 (0)
Other time (%) = 0.0411758 (1.63319)

Nlocal:    500 ave 500 max 500 min
Histogram: 1 0 0 0 0 0 0 0 0 0
Nghost:    2185 ave 2185 max 2185 min
Histogram: 1 0 0 0 0 0 0 0 0 0
Neighs:    22929 ave 22929 max 22929 min
Histogram: 1 0 0 0 0 0 0 0 0 0

Total # of neighbors = 22929
Ave neighs/atom = 45.858
Neighbor list builds = 41
Dangerous builds = 0
WARNING: No fixes defined, atoms won't move (verlet.cpp:52)
Memory usage per processor = 1.71601 Mbytes
mystep PotEng Xy Xz Yz Lx 
          32   -7.5608703     0.119504            0            0        7.469 
Loop time of 0 on 1 procs for 0 steps with 500 atoms

Pair  time (%) = 0 (0)
Neigh time (%) = 0 (0)
Comm  time (%) = 0 (0)
Outpt time (%) = 0 (0)
Other time (%) = 0 (0)

Nlocal:    500 ave 500 max 500 min
Histogram: 1 0 0 0 0 0 0 0 0 0
Nghost:    2177 ave 2177 max 2177 min
Histogram: 1 0 0 0 0 0 0 0 0 0
Neighs:    22934 ave 22934 max 22934 min
Histogram: 1 0 0 0 0 0 0 0 0 0

Total # of neighbors = 22934
Ave neighs/atom = 45.868
Neighbor list builds = 0
Dangerous builds = 0
Memory usage per processor = 1.71601 Mbytes
mystep PotEng Xy Xz Yz Lx 
          33   -7.5608703     0.119504            0            0        7.469 
          33   -7.5608703     0.126973            0            0        7.469 
Loop time of 0.00089407 on 1 procs for 1 steps with 500 atoms

Pair  time (%) = 0.000849009 (94.96)
Neigh time (%) = 0 (0)
Comm  time (%) = 2.5034e-05 (2.8)
Outpt time (%) = 5.96046e-06 (0.666667)
Other time (%) = 1.40667e-05 (1.57333)

Nlocal:    500 ave 500 max 500 min
Histogram: 1 0 0 0 0 0 0 0 0 0
Nghost:    2177 ave 2177 max 2177 min
Histogram: 1 0 0 0 0 0 0 0 0 0
Neighs:    22934 ave 22934 max 22934 min
Histogram: 1 0 0 0 0 0 0 0 0 0

Total # of neighbors = 22934
Ave neighs/atom = 45.868
Neighbor list builds = 0
Dangerous builds = 0
WARNING: No fixes defined, atoms won't move (verlet.cpp:52)
Memory usage per processor = 1.71601 Mbytes
mystep PotEng Xy Xz Yz Lx 
          33    -7.560346     0.126973            0            0        7.469 
Loop time of 9.53674e-07 on 1 procs for 0 steps with 500 atoms

Pair  time (%) = 0 (0)
Neigh time (%) = 0 (0)
Comm  time (%) = 0 (0)
Outpt time (%) = 0 (0)
Other time (%) = 9.53674e-07 (100)

Nlocal:    500 ave 500 max 500 min
Histogram: 1 0 0 0 0 0 0 0 0 0
Nghost:    2177 ave 2177 max 2177 min
Histogram: 1 0 0 0 0 0 0 0 0 0
Neighs:    22937 ave 22937 max 22937 min
Histogram: 1 0 0 0 0 0 0 0 0 0

Total # of neighbors = 22937
Ave neighs/atom = 45.874
Neighbor list builds = 0
Dangerous builds = 0
WARNING: Resetting reneighboring criteria during minimization (min.cpp:166)
Memory usage per processor = 2.43699 Mbytes
mystep PotEng Xy Xz Yz Lx 
          34    -7.560346     0.126973            0            0        7.469 
          34   -7.5603612     0.126973            0            0        7.469 
Loop time of 0.231161 on 1 procs for 28 steps with 500 atoms

Minimization stats:
  Stopping criterion = energy tolerance
  Energy initial, next-to-last, final = 
        -7.56034595802     -7.56036113288     -7.56036120655
  Force two-norm initial, final = 1.48923 0.156357
  Force max component initial, final = 0.134189 0.0370694
  Final line search alpha, max atom move = 0.00195312 7.24012e-05
  Iterations, force evaluations = 28 260

Pair  time (%) = 0.221013 (95.6102)
Neigh time (%) = 0 (0)
Comm  time (%) = 0.00649428 (2.80942)
Outpt time (%) = 0 (0)
Other time (%) = 0.00365329 (1.58041)

Nlocal:    500 ave 500 max 500 min
Histogram: 1 0 0 0 0 0 0 0 0 0
Nghost:    2177 ave 2177 max 2177 min
Histogram: 1 0 0 0 0 0 0 0 0 0
Neighs:    22937 ave 22937 max 22937 min
Histogram: 1 0 0 0 0 0 0 0 0 0

Total # of neighbors = 22937
Ave neighs/atom = 45.874
Neighbor list builds = 0
Dangerous builds = 0
WARNING: No fixes defined, atoms won't move (verlet.cpp:52)
Memory usage per processor = 1.71601 Mbytes
mystep PotEng Xy Xz Yz Lx 
          34   -7.5603612     0.126973            0            0        7.469 
Loop time of 0 on 1 procs for 0 steps with 500 atoms

Pair  time (%) = 0 (0)
Neigh time (%) = 0 (0)
Comm  time (%) = 0 (0)
Outpt time (%) = 0 (0)
Other time (%) = 0 (0)

Nlocal:    500 ave 500 max 500 min
Histogram: 1 0 0 0 0 0 0 0 0 0
Nghost:    2177 ave 2177 max 2177 min
Histogram: 1 0 0 0 0 0 0 0 0 0
Neighs:    22939 ave 22939 max 22939 min
Histogram: 1 0 0 0 0 0 0 0 0 0

Total # of neighbors = 22939
Ave neighs/atom = 45.878
Neighbor list builds = 0
Dangerous builds = 0
Memory usage per processor = 1.71601 Mbytes
mystep PotEng Xy Xz Yz Lx 
          35   -7.5603612     0.126973            0            0        7.469 
          35   -7.5603612     0.134442            0            0        7.469 
Loop time of 0.000895023 on 1 procs for 1 steps with 500 atoms

Pair  time (%) = 0.000850201 (94.992)
Neigh time (%) = 0 (0)
Comm  time (%) = 2.5034e-05 (2.79702)
Outpt time (%) = 5.96046e-06 (0.665956)
Other time (%) = 1.38283e-05 (1.54502)

Nlocal:    500 ave 500 max 500 min
Histogram: 1 0 0 0 0 0 0 0 0 0
Nghost:    2177 ave 2177 max 2177 min
Histogram: 1 0 0 0 0 0 0 0 0 0
Neighs:    22939 ave 22939 max 22939 min
Histogram: 1 0 0 0 0 0 0 0 0 0

Total # of neighbors = 22939
Ave neighs/atom = 45.878
Neighbor list builds = 0
Dangerous builds = 0
WARNING: No fixes defined, atoms won't move (verlet.cpp:52)
Memory usage per processor = 1.71601 Mbytes
mystep PotEng Xy Xz Yz Lx 
          35   -7.5598228     0.134442            0            0        7.469 
Loop time of 9.53674e-07 on 1 procs for 0 steps with 500 atoms

Pair  time (%) = 0 (0)
Neigh time (%) = 0 (0)
Comm  time (%) = 0 (0)
Outpt time (%) = 0 (0)
Other time (%) = 9.53674e-07 (100)

Nlocal:    500 ave 500 max 500 min
Histogram: 1 0 0 0 0 0 0 0 0 0
Nghost:    2177 ave 2177 max 2177 min
Histogram: 1 0 0 0 0 0 0 0 0 0
Neighs:    22934 ave 22934 max 22934 min
Histogram: 1 0 0 0 0 0 0 0 0 0

Total # of neighbors = 22934
Ave neighs/atom = 45.868
Neighbor list builds = 0
Dangerous builds = 0
WARNING: Resetting reneighboring criteria during minimization (min.cpp:166)
Memory usage per processor = 2.43699 Mbytes
mystep PotEng Xy Xz Yz Lx 
          36   -7.5598228     0.134442            0            0        7.469 
          36   -7.5598798     0.134442            0            0        7.469 
Loop time of 0.405692 on 1 procs for 55 steps with 500 atoms

Minimization stats:
  Stopping criterion = energy tolerance
  Energy initial, next-to-last, final = 
        -7.55982280253     -7.55987975483     -7.55987982644
  Force two-norm initial, final = 1.50628 0.136832
  Force max component initial, final = 0.131539 0.0210223
  Final line search alpha, max atom move = 0.000976562 2.05295e-05
  Iterations, force evaluations = 55 453

Pair  time (%) = 0.384239 (94.712)
Neigh time (%) = 0.00355172 (0.875472)
Comm  time (%) = 0.0115025 (2.83528)
Outpt time (%) = 0 (0)
Other time (%) = 0.00639868 (1.57723)

Nlocal:    500 ave 500 max 500 min
Histogram: 1 0 0 0 0 0 0 0 0 0
Nghost:    2175 ave 2175 max 2175 min
Histogram: 1 0 0 0 0 0 0 0 0 0
Neighs:    22902 ave 22902 max 22902 min
Histogram: 1 0 0 0 0 0 0 0 0 0

Total # of neighbors = 22902
Ave neighs/atom = 45.804
Neighbor list builds = 2
Dangerous builds = 0
WARNING: No fixes defined, atoms won't move (verlet.cpp:52)
Memory usage per processor = 1.71601 Mbytes
mystep PotEng Xy Xz Yz Lx 
          36   -7.5598798     0.134442            0            0        7.469 
Loop time of 0 on 1 procs for 0 steps with 500 atoms

Pair  time (%) = 0 (0)
Neigh time (%) = 0 (0)
Comm  time (%) = 0 (0)
Outpt time (%) = 0 (0)
Other time (%) = 0 (0)

Nlocal:    500 ave 500 max 500 min
Histogram: 1 0 0 0 0 0 0 0 0 0
Nghost:    2177 ave 2177 max 2177 min
Histogram: 1 0 0 0 0 0 0 0 0 0
Neighs:    22939 ave 22939 max 22939 min
Histogram: 1 0 0 0 0 0 0 0 0 0

Total # of neighbors = 22939
Ave neighs/atom = 45.878
Neighbor list builds = 0
Dangerous builds = 0
Memory usage per processor = 1.71601 Mbytes
mystep PotEng Xy Xz Yz Lx 
          37   -7.5598798     0.134442            0            0        7.469 
          37   -7.5598798     0.141911            0            0        7.469 
Loop time of 0.000889063 on 1 procs for 1 steps with 500 atoms

Pair  time (%) = 0.000846148 (95.173)
Neigh time (%) = 0 (0)
Comm  time (%) = 2.47955e-05 (2.78895)
Outpt time (%) = 5.00679e-06 (0.563154)
Other time (%) = 1.3113e-05 (1.47493)

Nlocal:    500 ave 500 max 500 min
Histogram: 1 0 0 0 0 0 0 0 0 0
Nghost:    2177 ave 2177 max 2177 min
Histogram: 1 0 0 0 0 0 0 0 0 0
Neighs:    22939 ave 22939 max 22939 min
Histogram: 1 0 0 0 0 0 0 0 0 0

Total # of neighbors = 22939
Ave neighs/atom = 45.878
Neighbor list builds = 0
Dangerous builds = 0
WARNING: No fixes defined, atoms won't move (verlet.cpp:52)
Memory usage per processor = 1.71601 Mbytes
mystep PotEng Xy Xz Yz Lx 
          37   -7.5593359     0.141911            0            0        7.469 
Loop time of 0 on 1 procs for 0 steps with 500 atoms

Pair  time (%) = 0 (0)
Neigh time (%) = 0 (0)
Comm  time (%) = 0 (0)
Outpt time (%) = 0 (0)
Other time (%) = 0 (0)

Nlocal:    500 ave 500 max 500 min
Histogram: 1 0 0 0 0 0 0 0 0 0
Nghost:    2177 ave 2177 max 2177 min
Histogram: 1 0 0 0 0 0 0 0 0 0
Neighs:    22942 ave 22942 max 22942 min
Histogram: 1 0 0 0 0 0 0 0 0 0

Total # of neighbors = 22942
Ave neighs/atom = 45.884
Neighbor list builds = 0
Dangerous builds = 0
WARNING: Resetting reneighboring criteria during minimization (min.cpp:166)
Memory usage per processor = 2.43699 Mbytes
mystep PotEng Xy Xz Yz Lx 
          38   -7.5593359     0.141911            0            0        7.469 
          38     -7.55935     0.141911            0            0        7.469 
Loop time of 0.228677 on 1 procs for 27 steps with 500 atoms

Minimization stats:
  Stopping criterion = energy tolerance
  Energy initial, next-to-last, final = 
        -7.55933586249     -7.55934993569     -7.55935000084
  Force two-norm initial, final = 1.50118 0.120824
  Force max component initial, final = 0.135625 0.0350196
  Final line search alpha, max atom move = 0.00195312 6.83976e-05
  Iterations, force evaluations = 27 255

Pair  time (%) = 0.216791 (94.8024)
Neigh time (%) = 0.00182199 (0.796755)
Comm  time (%) = 0.00651741 (2.85005)
Outpt time (%) = 0 (0)
Other time (%) = 0.00354624 (1.55076)

Nlocal:    500 ave 500 max 500 min
Histogram: 1 0 0 0 0 0 0 0 0 0
Nghost:    2173 ave 2173 max 2173 min
Histogram: 1 0 0 0 0 0 0 0 0 0
Neighs:    22945 ave 22945 max 22945 min
Histogram: 1 0 0 0 0 0 0 0 0 0

Total # of neighbors = 22945
Ave neighs/atom = 45.89
Neighbor list builds = 1
Dangerous builds = 0
WARNING: No fixes defined, atoms won't move (verlet.cpp:52)
Memory usage per processor = 1.71601 Mbytes
mystep PotEng Xy Xz Yz Lx 
          38     -7.55935     0.141911            0            0        7.469 
Loop time of 0 on 1 procs for 0 steps with 500 atoms

Pair  time (%) = 0 (0)
Neigh time (%) = 0 (0)
Comm  time (%) = 0 (0)
Outpt time (%) = 0 (0)
Other time (%) = 0 (0)

Nlocal:    500 ave 500 max 500 min
Histogram: 1 0 0 0 0 0 0 0 0 0
Nghost:    2181 ave 2181 max 2181 min
Histogram: 1 0 0 0 0 0 0 0 0 0
Neighs:    22934 ave 22934 max 22934 min
Histogram: 1 0 0 0 0 0 0 0 0 0

Total # of neighbors = 22934
Ave neighs/atom = 45.868
Neighbor list builds = 0
Dangerous builds = 0
Memory usage per processor = 1.71601 Mbytes
mystep PotEng Xy Xz Yz Lx 
          39     -7.55935     0.141911            0            0        7.469 
          39     -7.55935      0.14938            0            0        7.469 
Loop time of 0.000890017 on 1 procs for 1 steps with 500 atoms

Pair  time (%) = 0.000845194 (94.9638)
Neigh time (%) = 0 (0)
Comm  time (%) = 2.59876e-05 (2.9199)
Outpt time (%) = 5.96046e-06 (0.669703)
Other time (%) = 1.28746e-05 (1.44656)

Nlocal:    500 ave 500 max 500 min
Histogram: 1 0 0 0 0 0 0 0 0 0
Nghost:    2181 ave 2181 max 2181 min
Histogram: 1 0 0 0 0 0 0 0 0 0
Neighs:    22934 ave 22934 max 22934 min
Histogram: 1 0 0 0 0 0 0 0 0 0

Total # of neighbors = 22934
Ave neighs/atom = 45.868
Neighbor list builds = 0
Dangerous builds = 0
WARNING: No fixes defined, atoms won't move (verlet.cpp:52)
Memory usage per processor = 1.71601 Mbytes
mystep PotEng Xy Xz Yz Lx 
          39   -7.5587923      0.14938            0            0        7.469 
Loop time of 0 on 1 procs for 0 steps with 500 atoms

Pair  time (%) = 0 (0)
Neigh time (%) = 0 (0)
Comm  time (%) = 0 (0)
Outpt time (%) = 0 (0)
Other time (%) = 0 (0)

Nlocal:    500 ave 500 max 500 min
Histogram: 1 0 0 0 0 0 0 0 0 0
Nghost:    2181 ave 2181 max 2181 min
Histogram: 1 0 0 0 0 0 0 0 0 0
Neighs:    22932 ave 22932 max 22932 min
Histogram: 1 0 0 0 0 0 0 0 0 0

Total # of neighbors = 22932
Ave neighs/atom = 45.864
Neighbor list builds = 0
Dangerous builds = 0
WARNING: Resetting reneighboring criteria during minimization (min.cpp:166)
Memory usage per processor = 2.43699 Mbytes
mystep PotEng Xy Xz Yz Lx 
          40   -7.5587923      0.14938            0            0        7.469 
          40   -7.5588057      0.14938            0            0        7.469 
Loop time of 0.169989 on 1 procs for 20 steps with 500 atoms

Minimization stats:
  Stopping criterion = energy tolerance
  Energy initial, next-to-last, final = 
        -7.55879226863     -7.55880566991     -7.55880573455
  Force two-norm initial, final = 1.51275 0.147421
  Force max component initial, final = 0.142479 0.0256865
  Final line search alpha, max atom move = 0.00195312 5.0169e-05
  Iterations, force evaluations = 20 191

Pair  time (%) = 0.16258 (95.6418)
Neigh time (%) = 0 (0)
Comm  time (%) = 0.0047791 (2.81142)
Outpt time (%) = 0 (0)
Other time (%) = 0.00262928 (1.54674)

Nlocal:    500 ave 500 max 500 min
Histogram: 1 0 0 0 0 0 0 0 0 0
Nghost:    2181 ave 2181 max 2181 min
Histogram: 1 0 0 0 0 0 0 0 0 0
Neighs:    22932 ave 22932 max 22932 min
Histogram: 1 0 0 0 0 0 0 0 0 0

Total # of neighbors = 22932
Ave neighs/atom = 45.864
Neighbor list builds = 0
Dangerous builds = 0
WARNING: No fixes defined, atoms won't move (verlet.cpp:52)
Memory usage per processor = 1.71601 Mbytes
mystep PotEng Xy Xz Yz Lx 
          40   -7.5588057      0.14938            0            0        7.469 
Loop time of 0 on 1 procs for 0 steps with 500 atoms

Pair  time (%) = 0 (0)
Neigh time (%) = 0 (0)
Comm  time (%) = 0 (0)
Outpt time (%) = 0 (0)
Other time (%) = 0 (0)

Nlocal:    500 ave 500 max 500 min
Histogram: 1 0 0 0 0 0 0 0 0 0
Nghost:    2181 ave 2181 max 2181 min
Histogram: 1 0 0 0 0 0 0 0 0 0
Neighs:    22931 ave 22931 max 22931 min
Histogram: 1 0 0 0 0 0 0 0 0 0

Total # of neighbors = 22931
Ave neighs/atom = 45.862
Neighbor list builds = 0
Dangerous builds = 0
Memory usage per processor = 1.71601 Mbytes
mystep PotEng Xy Xz Yz Lx 
          41   -7.5588057      0.14938            0            0        7.469 
          41   -7.5588057     0.156849            0            0        7.469 
Loop time of 0.000890017 on 1 procs for 1 steps with 500 atoms

Pair  time (%) = 0.000844955 (94.937)
Neigh time (%) = 0 (0)
Comm  time (%) = 2.59876e-05 (2.9199)
Outpt time (%) = 5.00679e-06 (0.56255)
Other time (%) = 1.40667e-05 (1.5805)

Nlocal:    500 ave 500 max 500 min
Histogram: 1 0 0 0 0 0 0 0 0 0
Nghost:    2181 ave 2181 max 2181 min
Histogram: 1 0 0 0 0 0 0 0 0 0
Neighs:    22931 ave 22931 max 22931 min
Histogram: 1 0 0 0 0 0 0 0 0 0

Total # of neighbors = 22931
Ave neighs/atom = 45.862
Neighbor list builds = 0
Dangerous builds = 0
WARNING: No fixes defined, atoms won't move (verlet.cpp:52)
Memory usage per processor = 1.71601 Mbytes
mystep PotEng Xy Xz Yz Lx 
          41    -7.558235     0.156849            0            0        7.469 
Loop time of 0 on 1 procs for 0 steps with 500 atoms

Pair  time (%) = 0 (0)
Neigh time (%) = 0 (0)
Comm  time (%) = 0 (0)
Outpt time (%) = 0 (0)
Other time (%) = 0 (0)

Nlocal:    500 ave 500 max 500 min
Histogram: 1 0 0 0 0 0 0 0 0 0
Nghost:    2181 ave 2181 max 2181 min
Histogram: 1 0 0 0 0 0 0 0 0 0
Neighs:    22929 ave 22929 max 22929 min
Histogram: 1 0 0 0 0 0 0 0 0 0

Total # of neighbors = 22929
Ave neighs/atom = 45.858
Neighbor list builds = 0
Dangerous builds = 0
WARNING: Resetting reneighboring criteria during minimization (min.cpp:166)
Memory usage per processor = 2.43699 Mbytes
mystep PotEng Xy Xz Yz Lx 
          42    -7.558235     0.156849            0            0        7.469 
          42   -7.5582503     0.156849            0            0        7.469 
Loop time of 0.193652 on 1 procs for 23 steps with 500 atoms

Minimization stats:
  Stopping criterion = energy tolerance
  Energy initial, next-to-last, final = 
        -7.55823499332     -7.55825021984     -7.55825028187
  Force two-norm initial, final = 1.51415 0.139969
  Force max component initial, final = 0.133972 0.0256841
  Final line search alpha, max atom move = 0.00195312 5.01642e-05
  Iterations, force evaluations = 23 218

Pair  time (%) = 0.185218 (95.6449)
Neigh time (%) = 0 (0)
Comm  time (%) = 0.00543785 (2.80805)
Outpt time (%) = 0 (0)
Other time (%) = 0.00299597 (1.54709)

Nlocal:    500 ave 500 max 500 min
Histogram: 1 0 0 0 0 0 0 0 0 0
Nghost:    2181 ave 2181 max 2181 min
Histogram: 1 0 0 0 0 0 0 0 0 0
Neighs:    22929 ave 22929 max 22929 min
Histogram: 1 0 0 0 0 0 0 0 0 0

Total # of neighbors = 22929
Ave neighs/atom = 45.858
Neighbor list builds = 0
Dangerous builds = 0
WARNING: No fixes defined, atoms won't move (verlet.cpp:52)
Memory usage per processor = 1.71601 Mbytes
mystep PotEng Xy Xz Yz Lx 
          42   -7.5582503     0.156849            0            0        7.469 
Loop time of 0 on 1 procs for 0 steps with 500 atoms

Pair  time (%) = 0 (0)
Neigh time (%) = 0 (0)
Comm  time (%) = 0 (0)
Outpt time (%) = 0 (0)
Other time (%) = 0 (0)

Nlocal:    500 ave 500 max 500 min
Histogram: 1 0 0 0 0 0 0 0 0 0
Nghost:    2181 ave 2181 max 2181 min
Histogram: 1 0 0 0 0 0 0 0 0 0
Neighs:    22931 ave 22931 max 22931 min
Histogram: 1 0 0 0 0 0 0 0 0 0

Total # of neighbors = 22931
Ave neighs/atom = 45.862
Neighbor list builds = 0
Dangerous builds = 0
Memory usage per processor = 1.71601 Mbytes
mystep PotEng Xy Xz Yz Lx 
          43   -7.5582503     0.156849            0            0        7.469 
          43   -7.5582503     0.164318            0            0        7.469 
Loop time of 0.000889778 on 1 procs for 1 steps with 500 atoms

Pair  time (%) = 0.000845194 (94.9893)
Neigh time (%) = 0 (0)
Comm  time (%) = 2.47955e-05 (2.78671)
Outpt time (%) = 4.76837e-06 (0.535906)
Other time (%) = 1.50204e-05 (1.6881)

Nlocal:    500 ave 500 max 500 min
Histogram: 1 0 0 0 0 0 0 0 0 0
Nghost:    2181 ave 2181 max 2181 min
Histogram: 1 0 0 0 0 0 0 0 0 0
Neighs:    22931 ave 22931 max 22931 min
Histogram: 1 0 0 0 0 0 0 0 0 0

Total # of neighbors = 22931
Ave neighs/atom = 45.862
Neighbor list builds = 0
Dangerous builds = 0
WARNING: No fixes defined, atoms won't move (verlet.cpp:52)
Memory usage per processor = 1.71601 Mbytes
mystep PotEng Xy Xz Yz Lx 
          43   -7.5576661     0.164318            0            0        7.469 
Loop time of 0 on 1 procs for 0 steps with 500 atoms

Pair  time (%) = 0 (0)
Neigh time (%) = 0 (0)
Comm  time (%) = 0 (0)
Outpt time (%) = 0 (0)
Other time (%) = 0 (0)

Nlocal:    500 ave 500 max 500 min
Histogram: 1 0 0 0 0 0 0 0 0 0
Nghost:    2181 ave 2181 max 2181 min
Histogram: 1 0 0 0 0 0 0 0 0 0
Neighs:    22938 ave 22938 max 22938 min
Histogram: 1 0 0 0 0 0 0 0 0 0

Total # of neighbors = 22938
Ave neighs/atom = 45.876
Neighbor list builds = 0
Dangerous builds = 0
WARNING: Resetting reneighboring criteria during minimization (min.cpp:166)
Memory usage per processor = 2.43699 Mbytes
mystep PotEng Xy Xz Yz Lx 
          44   -7.5576661     0.164318            0            0        7.469 
          44   -7.5576843     0.164318            0            0        7.469 
Loop time of 0.200924 on 1 procs for 24 steps with 500 atoms

Minimization stats:
  Stopping criterion = energy tolerance
  Energy initial, next-to-last, final = 
        -7.55766614776     -7.55768428046      -7.5576843446
  Force two-norm initial, final = 1.48591 0.1342
  Force max component initial, final = 0.134371 0.0248029
  Final line search alpha, max atom move = 0.00195312 4.84431e-05
  Iterations, force evaluations = 24 226

Pair  time (%) = 0.192176 (95.646)
Neigh time (%) = 0 (0)
Comm  time (%) = 0.00565815 (2.81607)
Outpt time (%) = 0 (0)
Other time (%) = 0.00309014 (1.53797)

Nlocal:    500 ave 500 max 500 min
Histogram: 1 0 0 0 0 0 0 0 0 0
Nghost:    2181 ave 2181 max 2181 min
Histogram: 1 0 0 0 0 0 0 0 0 0
Neighs:    22938 ave 22938 max 22938 min
Histogram: 1 0 0 0 0 0 0 0 0 0

Total # of neighbors = 22938
Ave neighs/atom = 45.876
Neighbor list builds = 0
Dangerous builds = 0
WARNING: No fixes defined, atoms won't move (verlet.cpp:52)
Memory usage per processor = 1.71601 Mbytes
mystep PotEng Xy Xz Yz Lx 
          44   -7.5576843     0.164318            0            0        7.469 
Loop time of 0 on 1 procs for 0 steps with 500 atoms

Pair  time (%) = 0 (0)
Neigh time (%) = 0 (0)
Comm  time (%) = 0 (0)
Outpt time (%) = 0 (0)
Other time (%) = 0 (0)

Nlocal:    500 ave 500 max 500 min
Histogram: 1 0 0 0 0 0 0 0 0 0
Nghost:    2181 ave 2181 max 2181 min
Histogram: 1 0 0 0 0 0 0 0 0 0
Neighs:    22940 ave 22940 max 22940 min
Histogram: 1 0 0 0 0 0 0 0 0 0

Total # of neighbors = 22940
Ave neighs/atom = 45.88
Neighbor list builds = 0
Dangerous builds = 0
Memory usage per processor = 1.71601 Mbytes
mystep PotEng Xy Xz Yz Lx 
          45   -7.5576843     0.164318            0            0        7.469 
          45   -7.5576843     0.171787            0            0        7.469 
Loop time of 0.000886917 on 1 procs for 1 steps with 500 atoms

Pair  time (%) = 0.000844002 (95.1613)
Neigh time (%) = 0 (0)
Comm  time (%) = 2.5034e-05 (2.82258)
Outpt time (%) = 5.00679e-06 (0.564516)
Other time (%) = 1.28746e-05 (1.45161)

Nlocal:    500 ave 500 max 500 min
Histogram: 1 0 0 0 0 0 0 0 0 0
Nghost:    2181 ave 2181 max 2181 min
Histogram: 1 0 0 0 0 0 0 0 0 0
Neighs:    22940 ave 22940 max 22940 min
Histogram: 1 0 0 0 0 0 0 0 0 0

Total # of neighbors = 22940
Ave neighs/atom = 45.88
Neighbor list builds = 0
Dangerous builds = 0
WARNING: No fixes defined, atoms won't move (verlet.cpp:52)
Memory usage per processor = 1.71601 Mbytes
mystep PotEng Xy Xz Yz Lx 
          45   -7.5570889     0.171787            0            0        7.469 
Loop time of 0 on 1 procs for 0 steps with 500 atoms

Pair  time (%) = 0 (0)
Neigh time (%) = 0 (0)
Comm  time (%) = 0 (0)
Outpt time (%) = 0 (0)
Other time (%) = 0 (0)

Nlocal:    500 ave 500 max 500 min
Histogram: 1 0 0 0 0 0 0 0 0 0
Nghost:    2181 ave 2181 max 2181 min
Histogram: 1 0 0 0 0 0 0 0 0 0
Neighs:    22944 ave 22944 max 22944 min
Histogram: 1 0 0 0 0 0 0 0 0 0

Total # of neighbors = 22944
[...]
Loop time of 0.000898838 on 1 procs for 1 steps with 500 atoms

Pair  time (%) = 0.00085187 (94.7745)
Neigh time (%) = 0 (0)
Comm  time (%) = 2.59876e-05 (2.89125)
Outpt time (%) = 5.00679e-06 (0.557029)
Other time (%) = 1.5974e-05 (1.77719)

Nlocal:    500 ave 500 max 500 min
Histogram: 1 0 0 0 0 0 0 0 0 0
Nghost:    2172 ave 2172 max 2172 min
Histogram: 1 0 0 0 0 0 0 0 0 0
Neighs:    22961 ave 22961 max 22961 min
Histogram: 1 0 0 0 0 0 0 0 0 0

Total # of neighbors = 22961
Ave neighs/atom = 45.922
Neighbor list builds = 0
Dangerous builds = 0
WARNING: No fixes defined, atoms won't move (verlet.cpp:52)
Memory usage per processor = 1.7174 Mbytes
mystep PotEng Xy Xz Yz Lx 
        1189   -7.5862683    -0.037345            0            0        7.469 
Loop time of 0 on 1 procs for 0 steps with 500 atoms

Pair  time (%) = 0 (0)
Neigh time (%) = 0 (0)
Comm  time (%) = 0 (0)
Outpt time (%) = 0 (0)
Other time (%) = 0 (0)

Nlocal:    500 ave 500 max 500 min
Histogram: 1 0 0 0 0 0 0 0 0 0
Nghost:    2172 ave 2172 max 2172 min
Histogram: 1 0 0 0 0 0 0 0 0 0
Neighs:    22956 ave 22956 max 22956 min
Histogram: 1 0 0 0 0 0 0 0 0 0

Total # of neighbors = 22956
Ave neighs/atom = 45.912
Neighbor list builds = 0
Dangerous builds = 0
WARNING: Resetting reneighboring criteria during minimization (min.cpp:166)
Memory usage per processor = 2.43838 Mbytes
mystep PotEng Xy Xz Yz Lx 
        1190   -7.5862683    -0.037345            0            0        7.469 
        1190   -7.5862822    -0.037345            0            0        7.469 
Loop time of 0.173955 on 1 procs for 20 steps with 500 atoms

Minimization stats:
  Stopping criterion = energy tolerance
  Energy initial, next-to-last, final = 
        -7.58626830688      -7.5862821135     -7.58628217101
  Force two-norm initial, final = 1.46316 0.15724
  Force max component initial, final = 0.146854 0.0217976
  Final line search alpha, max atom move = 0.00195312 4.25734e-05
  Iterations, force evaluations = 20 194

Pair  time (%) = 0.166329 (95.6162)
Neigh time (%) = 0 (0)
Comm  time (%) = 0.00498843 (2.86766)
Outpt time (%) = 0 (0)
Other time (%) = 0.00263739 (1.51613)

Nlocal:    500 ave 500 max 500 min
Histogram: 1 0 0 0 0 0 0 0 0 0
Nghost:    2172 ave 2172 max 2172 min
Histogram: 1 0 0 0 0 0 0 0 0 0
Neighs:    22956 ave 22956 max 22956 min
Histogram: 1 0 0 0 0 0 0 0 0 0

Total # of neighbors = 22956
Ave neighs/atom = 45.912
Neighbor list builds = 0
Dangerous builds = 0
WARNING: No fixes defined, atoms won't move (verlet.cpp:52)
Memory usage per processor = 1.7174 Mbytes
mystep PotEng Xy Xz Yz Lx 
        1190   -7.5862822    -0.037345            0            0        7.469 
Loop time of 0 on 1 procs for 0 steps with 500 atoms

Pair  time (%) = 0 (0)
Neigh time (%) = 0 (0)
Comm  time (%) = 0 (0)
Outpt time (%) = 0 (0)
Other time (%) = 0 (0)

Nlocal:    500 ave 500 max 500 min
Histogram: 1 0 0 0 0 0 0 0 0 0
Nghost:    2172 ave 2172 max 2172 min
Histogram: 1 0 0 0 0 0 0 0 0 0
Neighs:    22964 ave 22964 max 22964 min
Histogram: 1 0 0 0 0 0 0 0 0 0

Total # of neighbors = 22964
Ave neighs/atom = 45.928
Neighbor list builds = 0
Dangerous builds = 0
Memory usage per processor = 1.7174 Mbytes
mystep PotEng Xy Xz Yz Lx 
        1191   -7.5862822    -0.037345            0            0        7.469 
        1191   -7.5862822    -0.029876            0            0        7.469 
Loop time of 0.000902891 on 1 procs for 1 steps with 500 atoms

Pair  time (%) = 0.000853062 (94.4811)
Neigh time (%) = 0 (0)
Comm  time (%) = 2.47955e-05 (2.74624)
Outpt time (%) = 1.09673e-05 (1.21468)
Other time (%) = 1.40667e-05 (1.55796)

Nlocal:    500 ave 500 max 500 min
Histogram: 1 0 0 0 0 0 0 0 0 0
Nghost:    2172 ave 2172 max 2172 min
Histogram: 1 0 0 0 0 0 0 0 0 0
Neighs:    22964 ave 22964 max 22964 min
Histogram: 1 0 0 0 0 0 0 0 0 0

Total # of neighbors = 22964
Ave neighs/atom = 45.928
Neighbor list builds = 0
Dangerous builds = 0
WARNING: No fixes defined, atoms won't move (verlet.cpp:52)
Memory usage per processor = 1.7174 Mbytes
mystep PotEng Xy Xz Yz Lx 
        1191   -7.5860871    -0.029876            0            0        7.469 
Loop time of 0 on 1 procs for 0 steps with 500 atoms

Pair  time (%) = 0 (0)
Neigh time (%) = 0 (0)
Comm  time (%) = 0 (0)
Outpt time (%) = 0 (0)
Other time (%) = 0 (0)

Nlocal:    500 ave 500 max 500 min
Histogram: 1 0 0 0 0 0 0 0 0 0
Nghost:    2172 ave 2172 max 2172 min
Histogram: 1 0 0 0 0 0 0 0 0 0
Neighs:    22962 ave 22962 max 22962 min
Histogram: 1 0 0 0 0 0 0 0 0 0

Total # of neighbors = 22962
Ave neighs/atom = 45.924
Neighbor list builds = 0
Dangerous builds = 0
WARNING: Resetting reneighboring criteria during minimization (min.cpp:166)
Memory usage per processor = 2.43838 Mbytes
mystep PotEng Xy Xz Yz Lx 
        1192   -7.5860871    -0.029876            0            0        7.469 
        1192   -7.5861044    -0.029876            0            0        7.469 
Loop time of 0.234694 on 1 procs for 28 steps with 500 atoms

Minimization stats:
  Stopping criterion = energy tolerance
  Energy initial, next-to-last, final = 
        -7.58608709028     -7.58610439962     -7.58610444466
  Force two-norm initial, final = 1.47732 0.0964117
  Force max component initial, final = 0.148414 0.0133507
  Final line search alpha, max atom move = 0.00195312 2.60755e-05
  Iterations, force evaluations = 28 262

Pair  time (%) = 0.224367 (95.5998)
Neigh time (%) = 0 (0)
Comm  time (%) = 0.0067234 (2.86475)
Outpt time (%) = 0 (0)
Other time (%) = 0.0036037 (1.53549)

Nlocal:    500 ave 500 max 500 min
Histogram: 1 0 0 0 0 0 0 0 0 0
Nghost:    2172 ave 2172 max 2172 min
Histogram: 1 0 0 0 0 0 0 0 0 0
Neighs:    22962 ave 22962 max 22962 min
Histogram: 1 0 0 0 0 0 0 0 0 0

Total # of neighbors = 22962
Ave neighs/atom = 45.924
Neighbor list builds = 0
Dangerous builds = 0
WARNING: No fixes defined, atoms won't move (verlet.cpp:52)
Memory usage per processor = 1.7174 Mbytes
mystep PotEng Xy Xz Yz Lx 
        1192   -7.5861044    -0.029876            0            0        7.469 
Loop time of 0 on 1 procs for 0 steps with 500 atoms

Pair  time (%) = 0 (0)
Neigh time (%) = 0 (0)
Comm  time (%) = 0 (0)
Outpt time (%) = 0 (0)
Other time (%) = 0 (0)

Nlocal:    500 ave 500 max 500 min
Histogram: 1 0 0 0 0 0 0 0 0 0
Nghost:    2172 ave 2172 max 2172 min
Histogram: 1 0 0 0 0 0 0 0 0 0
Neighs:    22964 ave 22964 max 22964 min
Histogram: 1 0 0 0 0 0 0 0 0 0

Total # of neighbors = 22964
Ave neighs/atom = 45.928
Neighbor list builds = 0
Dangerous builds = 0
Memory usage per processor = 1.7174 Mbytes
mystep PotEng Xy Xz Yz Lx 
        1193   -7.5861044    -0.029876            0            0        7.469 
        1193   -7.5861044    -0.022407            0            0        7.469 
Loop time of 0.000898123 on 1 procs for 1 steps with 500 atoms

Pair  time (%) = 0.000852823 (94.9562)
Neigh time (%) = 0 (0)
Comm  time (%) = 2.59876e-05 (2.89355)
Outpt time (%) = 5.96046e-06 (0.663658)
Other time (%) = 1.33514e-05 (1.48659)

Nlocal:    500 ave 500 max 500 min
Histogram: 1 0 0 0 0 0 0 0 0 0
Nghost:    2172 ave 2172 max 2172 min
Histogram: 1 0 0 0 0 0 0 0 0 0
Neighs:    22964 ave 22964 max 22964 min
Histogram: 1 0 0 0 0 0 0 0 0 0

Total # of neighbors = 22964
Ave neighs/atom = 45.928
Neighbor list builds = 0
Dangerous builds = 0
WARNING: No fixes defined, atoms won't move (verlet.cpp:52)
Memory usage per processor = 1.7174 Mbytes
mystep PotEng Xy Xz Yz Lx 
        1193   -7.5858992    -0.022407            0            0        7.469 
Loop time of 0 on 1 procs for 0 steps with 500 atoms

Pair  time (%) = 0 (0)
Neigh time (%) = 0 (0)
Comm  time (%) = 0 (0)
Outpt time (%) = 0 (0)
Other time (%) = 0 (0)

Nlocal:    500 ave 500 max 500 min
Histogram: 1 0 0 0 0 0 0 0 0 0
Nghost:    2172 ave 2172 max 2172 min
Histogram: 1 0 0 0 0 0 0 0 0 0
Neighs:    22961 ave 22961 max 22961 min
Histogram: 1 0 0 0 0 0 0 0 0 0

Total # of neighbors = 22961
Ave neighs/atom = 45.922
Neighbor list builds = 0
Dangerous builds = 0
WARNING: Resetting reneighboring criteria during minimization (min.cpp:166)
Memory usage per processor = 2.43838 Mbytes
mystep PotEng Xy Xz Yz Lx 
        1194   -7.5858992    -0.022407            0            0        7.469 
        1194   -7.5859127    -0.022407            0            0        7.469 
Loop time of 0.175066 on 1 procs for 20 steps with 500 atoms

Minimization stats:
  Stopping criterion = energy tolerance
  Energy initial, next-to-last, final = 
        -7.58589922145     -7.58591267326     -7.58591273623
  Force two-norm initial, final = 1.46205 0.127339
  Force max component initial, final = 0.145522 0.0416318
  Final line search alpha, max atom move = 0.00195312 8.13121e-05
  Iterations, force evaluations = 20 195

Pair  time (%) = 0.16735 (95.5926)
Neigh time (%) = 0 (0)
Comm  time (%) = 0.0050683 (2.89508)
Outpt time (%) = 0 (0)
Other time (%) = 0.00264764 (1.51237)

Nlocal:    500 ave 500 max 500 min
Histogram: 1 0 0 0 0 0 0 0 0 0
Nghost:    2172 ave 2172 max 2172 min
Histogram: 1 0 0 0 0 0 0 0 0 0
Neighs:    22961 ave 22961 max 22961 min
Histogram: 1 0 0 0 0 0 0 0 0 0

Total # of neighbors = 22961
Ave neighs/atom = 45.922
Neighbor list builds = 0
Dangerous builds = 0
WARNING: No fixes defined, atoms won't move (verlet.cpp:52)
Memory usage per processor = 1.7174 Mbytes
mystep PotEng Xy Xz Yz Lx 
        1194   -7.5859127    -0.022407            0            0        7.469 
Loop time of 0 on 1 procs for 0 steps with 500 atoms

Pair  time (%) = 0 (0)
Neigh time (%) = 0 (0)
Comm  time (%) = 0 (0)
Outpt time (%) = 0 (0)
Other time (%) = 0 (0)

Nlocal:    500 ave 500 max 500 min
Histogram: 1 0 0 0 0 0 0 0 0 0
Nghost:    2176 ave 2176 max 2176 min
Histogram: 1 0 0 0 0 0 0 0 0 0
Neighs:    22972 ave 22972 max 22972 min
Histogram: 1 0 0 0 0 0 0 0 0 0

Total # of neighbors = 22972
Ave neighs/atom = 45.944
Neighbor list builds = 0
Dangerous builds = 0
Memory usage per processor = 1.7174 Mbytes
mystep PotEng Xy Xz Yz Lx 
        1195   -7.5859127    -0.022407            0            0        7.469 
        1195   -7.5859127    -0.014938            0            0        7.469 
Loop time of 0.000898123 on 1 procs for 1 steps with 500 atoms

Pair  time (%) = 0.000853062 (94.9827)
Neigh time (%) = 0 (0)
Comm  time (%) = 2.59876e-05 (2.89355)
Outpt time (%) = 6.19888e-06 (0.690204)
Other time (%) = 1.28746e-05 (1.4335)

Nlocal:    500 ave 500 max 500 min
Histogram: 1 0 0 0 0 0 0 0 0 0
Nghost:    2176 ave 2176 max 2176 min
Histogram: 1 0 0 0 0 0 0 0 0 0
Neighs:    22972 ave 22972 max 22972 min
Histogram: 1 0 0 0 0 0 0 0 0 0

Total # of neighbors = 22972
Ave neighs/atom = 45.944
Neighbor list builds = 0
Dangerous builds = 0
WARNING: No fixes defined, atoms won't move (verlet.cpp:52)
Memory usage per processor = 1.7174 Mbytes
mystep PotEng Xy Xz Yz Lx 
        1195   -7.5856948    -0.014938            0            0        7.469 
Loop time of 0 on 1 procs for 0 steps with 500 atoms

Pair  time (%) = 0 (0)
Neigh time (%) = 0 (0)
Comm  time (%) = 0 (0)
Outpt time (%) = 0 (0)
Other time (%) = 0 (0)

Nlocal:    500 ave 500 max 500 min
Histogram: 1 0 0 0 0 0 0 0 0 0
Nghost:    2176 ave 2176 max 2176 min
Histogram: 1 0 0 0 0 0 0 0 0 0
Neighs:    22972 ave 22972 max 22972 min
Histogram: 1 0 0 0 0 0 0 0 0 0

Total # of neighbors = 22972
Ave neighs/atom = 45.944
Neighbor list builds = 0
Dangerous builds = 0
WARNING: Resetting reneighboring criteria during minimization (min.cpp:166)
Memory usage per processor = 2.43838 Mbytes
mystep PotEng Xy Xz Yz Lx 
        1196   -7.5856948    -0.014938            0            0        7.469 
        1196   -7.5857156    -0.014938            0            0        7.469 
Loop time of 0.281152 on 1 procs for 33 steps with 500 atoms

Minimization stats:
  Stopping criterion = energy tolerance
  Energy initial, next-to-last, final = 
        -7.58569479377     -7.58571557234     -7.58571561929
  Force two-norm initial, final = 1.46112 0.116224
  Force max component initial, final = 0.139743 0.0411803
  Final line search alpha, max atom move = 0.00195312 8.04303e-05
  Iterations, force evaluations = 33 314

Pair  time (%) = 0.268773 (95.5971)
Neigh time (%) = 0 (0)
Comm  time (%) = 0.0080936 (2.87873)
Outpt time (%) = 0 (0)
Other time (%) = 0.00428534 (1.52421)

Nlocal:    500 ave 500 max 500 min
Histogram: 1 0 0 0 0 0 0 0 0 0
Nghost:    2176 ave 2176 max 2176 min
Histogram: 1 0 0 0 0 0 0 0 0 0
Neighs:    22972 ave 22972 max 22972 min
Histogram: 1 0 0 0 0 0 0 0 0 0

Total # of neighbors = 22972
Ave neighs/atom = 45.944
Neighbor list builds = 0
Dangerous builds = 0
WARNING: No fixes defined, atoms won't move (verlet.cpp:52)
Memory usage per processor = 1.7174 Mbytes
mystep PotEng Xy Xz Yz Lx 
        1196   -7.5857156    -0.014938            0            0        7.469 
Loop time of 0 on 1 procs for 0 steps with 500 atoms

Pair  time (%) = 0 (0)
Neigh time (%) = 0 (0)
Comm  time (%) = 0 (0)
Outpt time (%) = 0 (0)
Other time (%) = 0 (0)

Nlocal:    500 ave 500 max 500 min
Histogram: 1 0 0 0 0 0 0 0 0 0
Nghost:    2176 ave 2176 max 2176 min
Histogram: 1 0 0 0 0 0 0 0 0 0
Neighs:    22971 ave 22971 max 22971 min
Histogram: 1 0 0 0 0 0 0 0 0 0

Total # of neighbors = 22971
Ave neighs/atom = 45.942
Neighbor list builds = 0
Dangerous builds = 0
Memory usage per processor = 1.7174 Mbytes
mystep PotEng Xy Xz Yz Lx 
        1197   -7.5857156    -0.014938            0            0        7.469 
        1197   -7.5857156    -0.007469            0            0        7.469 
Loop time of 0.000896931 on 1 procs for 1 steps with 500 atoms

Pair  time (%) = 0.000853062 (95.109)
Neigh time (%) = 0 (0)
Comm  time (%) = 2.57492e-05 (2.87081)
Outpt time (%) = 5.96046e-06 (0.66454)
Other time (%) = 1.21593e-05 (1.35566)

Nlocal:    500 ave 500 max 500 min
Histogram: 1 0 0 0 0 0 0 0 0 0
Nghost:    2176 ave 2176 max 2176 min
Histogram: 1 0 0 0 0 0 0 0 0 0
Neighs:    22971 ave 22971 max 22971 min
Histogram: 1 0 0 0 0 0 0 0 0 0

Total # of neighbors = 22971
Ave neighs/atom = 45.942
Neighbor list builds = 0
Dangerous builds = 0
WARNING: No fixes defined, atoms won't move (verlet.cpp:52)
Memory usage per processor = 1.7174 Mbytes
mystep PotEng Xy Xz Yz Lx 
        1197   -7.5854892    -0.007469            0            0        7.469 
Loop time of 0 on 1 procs for 0 steps with 500 atoms

Pair  time (%) = 0 (0)
Neigh time (%) = 0 (0)
Comm  time (%) = 0 (0)
Outpt time (%) = 0 (0)
Other time (%) = 0 (0)

Nlocal:    500 ave 500 max 500 min
Histogram: 1 0 0 0 0 0 0 0 0 0
Nghost:    2176 ave 2176 max 2176 min
Histogram: 1 0 0 0 0 0 0 0 0 0
Neighs:    22970 ave 22970 max 22970 min
Histogram: 1 0 0 0 0 0 0 0 0 0

Total # of neighbors = 22970
Ave neighs/atom = 45.94
Neighbor list builds = 0
Dangerous builds = 0
WARNING: Resetting reneighboring criteria during minimization (min.cpp:166)
Memory usage per processor = 2.43838 Mbytes
mystep PotEng Xy Xz Yz Lx 
        1198   -7.5854892    -0.007469            0            0        7.469 
        1198   -7.5855034    -0.007469            0            0        7.469 
Loop time of 0.224895 on 1 procs for 26 steps with 500 atoms

Minimization stats:
  Stopping criterion = energy tolerance
  Energy initial, next-to-last, final = 
        -7.58548922876     -7.58550331501     -7.58550336671
  Force two-norm initial, final = 1.4722 0.137817
  Force max component initial, final = 0.140943 0.0605427
  Final line search alpha, max atom move = 0.00195312 0.000118247
  Iterations, force evaluations = 26 251

Pair  time (%) = 0.215028 (95.6124)
Neigh time (%) = 0 (0)
Comm  time (%) = 0.00644875 (2.86745)
Outpt time (%) = 0 (0)
Other time (%) = 0.00341868 (1.52012)

Nlocal:    500 ave 500 max 500 min
Histogram: 1 0 0 0 0 0 0 0 0 0
Nghost:    2176 ave 2176 max 2176 min
Histogram: 1 0 0 0 0 0 0 0 0 0
Neighs:    22970 ave 22970 max 22970 min
Histogram: 1 0 0 0 0 0 0 0 0 0

Total # of neighbors = 22970
Ave neighs/atom = 45.94
Neighbor list builds = 0
Dangerous builds = 0
WARNING: No fixes defined, atoms won't move (verlet.cpp:52)
Memory usage per processor = 1.7174 Mbytes
mystep PotEng Xy Xz Yz Lx 
        1198   -7.5855034    -0.007469            0            0        7.469 
Loop time of 0 on 1 procs for 0 steps with 500 atoms

Pair  time (%) = 0 (0)
Neigh time (%) = 0 (0)
Comm  time (%) = 0 (0)
Outpt time (%) = 0 (0)
Other time (%) = 0 (0)

Nlocal:    500 ave 500 max 500 min
Histogram: 1 0 0 0 0 0 0 0 0 0
Nghost:    2176 ave 2176 max 2176 min
Histogram: 1 0 0 0 0 0 0 0 0 0
Neighs:    22976 ave 22976 max 22976 min
Histogram: 1 0 0 0 0 0 0 0 0 0

Total # of neighbors = 22976
Ave neighs/atom = 45.952
Neighbor list builds = 0
Dangerous builds = 0
Memory usage per processor = 1.7174 Mbytes
mystep PotEng Xy Xz Yz Lx 
        1199   -7.5855034    -0.007469            0            0        7.469 
        1199   -7.5855034 -8.8817842e-16            0            0        7.469 
Loop time of 0.000897169 on 1 procs for 1 steps with 500 atoms

Pair  time (%) = 0.000852108 (94.9774)
Neigh time (%) = 0 (0)
Comm  time (%) = 2.6226e-05 (2.9232)
Outpt time (%) = 5.00679e-06 (0.558065)
Other time (%) = 1.38283e-05 (1.54132)

Nlocal:    500 ave 500 max 500 min
Histogram: 1 0 0 0 0 0 0 0 0 0
Nghost:    2176 ave 2176 max 2176 min
Histogram: 1 0 0 0 0 0 0 0 0 0
Neighs:    22976 ave 22976 max 22976 min
Histogram: 1 0 0 0 0 0 0 0 0 0

Total # of neighbors = 22976
Ave neighs/atom = 45.952
Neighbor list builds = 0
Dangerous builds = 0
WARNING: No fixes defined, atoms won't move (verlet.cpp:52)
Memory usage per processor = 1.7174 Mbytes
mystep PotEng Xy Xz Yz Lx 
        1199   -7.5852652 -8.8817842e-16            0            0        7.469 
Loop time of 0 on 1 procs for 0 steps with 500 atoms

Pair  time (%) = 0 (0)
Neigh time (%) = 0 (0)
Comm  time (%) = 0 (0)
Outpt time (%) = 0 (0)
Other time (%) = 0 (0)

Nlocal:    500 ave 500 max 500 min
Histogram: 1 0 0 0 0 0 0 0 0 0
Nghost:    2176 ave 2176 max 2176 min
Histogram: 1 0 0 0 0 0 0 0 0 0
Neighs:    22975 ave 22975 max 22975 min
Histogram: 1 0 0 0 0 0 0 0 0 0

Total # of neighbors = 22975
Ave neighs/atom = 45.95
Neighbor list builds = 0
Dangerous builds = 0
WARNING: Resetting reneighboring criteria during minimization (min.cpp:166)
Memory usage per processor = 2.43838 Mbytes
mystep PotEng Xy Xz Yz Lx 
        1200   -7.5852652 -8.8817842e-16            0            0        7.469 
        1200    -7.585282 -8.8817842e-16            0            0        7.469 
Loop time of 0.261467 on 1 procs for 31 steps with 500 atoms

Minimization stats:
  Stopping criterion = energy tolerance
  Energy initial, next-to-last, final = 
        -7.58526517661     -7.58528195841     -7.58528202247
  Force two-norm initial, final = 1.47005 0.121847
  Force max component initial, final = 0.174132 0.0252082
  Final line search alpha, max atom move = 0.00195312 4.92347e-05
  Iterations, force evaluations = 31 292

Pair  time (%) = 0.24996 (95.599)
Neigh time (%) = 0 (0)
Comm  time (%) = 0.00749993 (2.86841)
Outpt time (%) = 0 (0)
Other time (%) = 0.0040071 (1.53255)

Nlocal:    500 ave 500 max 500 min
Histogram: 1 0 0 0 0 0 0 0 0 0
Nghost:    2176 ave 2176 max 2176 min
Histogram: 1 0 0 0 0 0 0 0 0 0
Neighs:    22975 ave 22975 max 22975 min
Histogram: 1 0 0 0 0 0 0 0 0 0

Total # of neighbors = 22975
Ave neighs/atom = 45.95
Neighbor list builds = 0
Dangerous builds = 0
WARNING: No fixes defined, atoms won't move (verlet.cpp:52)
Memory usage per processor = 1.7174 Mbytes
mystep PotEng Xy Xz Yz Lx 
        1200    -7.585282 -8.8817842e-16            0            0        7.469 
Loop time of 0 on 1 procs for 0 steps with 500 atoms

Pair  time (%) = 0 (0)
Neigh time (%) = 0 (0)
Comm  time (%) = 0 (0)
Outpt time (%) = 0 (0)
Other time (%) = 0 (0)

Nlocal:    500 ave 500 max 500 min
Histogram: 1 0 0 0 0 0 0 0 0 0
Nghost:    2180 ave 2180 max 2180 min
Histogram: 1 0 0 0 0 0 0 0 0 0
Neighs:    22974 ave 22974 max 22974 min
Histogram: 1 0 0 0 0 0 0 0 0 0

Total # of neighbors = 22974
Ave neighs/atom = 45.948
Neighbor list builds = 0
Dangerous builds = 0
