LAMMPS data file from restart file: timestep = 217462758, procs = 4

500 atoms

2 atom types

-3.7345000000000002e+00 3.7345000000000002e+00 xlo xhi
-3.7345000000000002e+00 3.7345000000000002e+00 ylo yhi
-3.7345000000000002e+00 3.7345000000000002e+00 zlo zhi
-8.8817841970012523e-16 0.0000000000000000e+00 0.0000000000000000e+00 xy xz yz

Masses

1 1
2 2

Pair Coeffs

1 1 1
2 0.5 0.88

Atoms

245 1 1.9162868554641665e-02 -2.1851395213305831e+00 -2.2434240431066774e+00 -512 -512 -512
57 1 -9.3811861395503016e-01 -1.7697892454763424e+00 -1.7935350580221066e+00 -512 -512 -512
385 1 -5.3354847182756115e-01 -1.5297991768351387e+00 -2.8582413037406771e+00 -512 -512 -512
60 1 -1.2999546776813431e+00 -2.4445152585282477e+00 -2.5132626379648855e+00 -512 -512 -512
441 2 -1.7621625169505213e+00 -1.8747693854043239e+00 -3.0225266059912004e+00 -512 -512 -512
63 1 -3.3093119310056300e+00 -1.2162088902407713e+00 -2.5398931184816012e+00 -512 -512 -512
109 1 -1.1711339323652523e+00 -2.3118921611696539e+00 -8.2665148878473715e-01 -512 -512 -512
387 1 -3.3026924070880259e+00 -2.2745338050643835e+00 -2.8686566901978439e+00 -512 -512 -512
379 1 -7.1844151870011119e-01 -2.8657251001509412e+00 -1.5991229411619687e+00 -512 -512 -512
131 1 -1.5081647430254699e+00 -1.2117861883637855e+00 -2.5282624069493762e+00 -512 -512 -512
291 1 -2.3020824988788280e+00 -2.1012957007411663e+00 -2.3584520155267046e+00 -512 -512 -512
249 1 -2.8632906831146210e+00 -1.3958228792395828e+00 -9.4615168150802065e-01 -512 -512 -512
344 1 -2.5623650048827122e+00 -1.5446090156584611e+00 -3.2240837126365540e+00 -512 -512 -512
389 1 -3.1380396884126371e+00 -7.1336330843177942e-01 -3.4818686774655196e+00 -512 -512 -512
346 1 -2.3473578344231014e+00 -3.1424854682198879e+00 -2.6652587398902052e+00 -512 -512 -512
282 1 -1.2457417172745311e-01 -2.3615908761676860e+00 -7.8673679083274539e-01 -512 -512 -512
42 1 -3.1977970417515746e+00 -2.0022360758344617e+00 -1.7945793780274888e+00 -512 -512 -512
133 1 -2.4356425348183475e+00 -1.1298203724535845e+00 -1.9244993907193046e+00 -512 -512 -512
145 1 -2.6510128583922037e+00 -2.4408133312662272e+00 -9.3796715591252955e-01 -512 -512 -512
203 1 -1.8590190366135373e+00 -2.7286006842200665e+00 -1.6106142537749952e+00 -512 -512 -512
230 1 -6.1299432339290671e-01 -6.0180529927931348e-01 -2.2986987289076466e+00 -512 -512 -512
215 1 -8.9500535472473208e-01 -1.2515442370673227e+00 -8.3457979235805491e-01 -512 -512 -512
55 1 -2.2711764840338100e+00 -5.4952689387229059e-01 -2.8501146805016209e+00 -512 -512 -512
409 2 -1.6455453042644113e+00 -1.4591018383605392e+00 -3.9602699309438405e-01 -512 -512 -512
238 1 -1.8814956046045952e+00 -1.6906574034857424e+00 -1.2380627694064068e+00 -512 -512 -512
354 1 -2.9502790080322159e+00 -3.0886804382110995e+00 -1.7162162631081617e+00 -512 -512 -512
471 2 -5.3646031248050052e-01 -2.4040737198893964e+00 -2.9400954274020838e+00 -512 -512 -512
236 1 -1.3634042566105933e+00 -7.3337983523115513e-01 -1.5986613098109017e+00 -512 -512 -512
334 1 -3.4648653621941397e+00 -3.3848073361119493e+00 -2.5805943012391310e+00 -512 -512 -512
403 2 -9.4598889365930194e-01 -7.9142888568071124e-01 -3.1273546259219742e+00 -512 -512 -512
248 1 -2.0140799820691870e+00 -7.1880984413049598e-01 -7.8708071495077014e-01 -512 -512 -512
130 1 -4.6452003402710984e-01 -3.1751677901248905e+00 -2.5829366050792468e+00 -512 -512 -512
33 1 -2.6433567673564973e-02 -1.3900647252583145e+00 -1.4323098736170681e+00 -512 -512 -512
288 1 -8.5178814020156546e-01 -2.1202445095683675e-01 -7.0820669997237706e-01 -512 -512 -512
490 2 -4.7167966694748387e-01 -5.9476402055810107e-01 -1.4130615332543113e+00 -512 -512 -512
271 1 -2.9568779536038292e+00 -3.9790511912564597e-01 -1.2924182916655442e+00 -512 -512 -512
393 1 -1.4102690347663738e+00 -3.2101813026322317e+00 -3.2360766305826725e+00 -512 -512 -512
429 2 -5.5695709326844201e-01 -8.7371476402071879e-01 -9.9651801308493493e-02 -512 -512 -512
451 2 1.4314602205544968e-01 -1.0500147340827595e+00 -2.5112821546753574e+00 -512 -512 -512
364 1 1.3684601280115194e-01 -5.0372282007109748e-01 -7.4071424443590717e-01 -512 -512 -512
448 2 -1.4597216548783387e+00 -2.9583673628081453e-01 -2.4802746702229110e+00 -512 -512 -512
465 2 -2.8176943338885461e+00 -6.5049004403104815e-01 -4.3303092079266392e-01 -512 -512 -512
244 1 -1.1097942641044578e+00 -2.1292105442426519e+00 -3.5419010401388067e+00 -512 -512 -512
356 1 4.7751496621640577e-02 -1.4586420478841320e+00 -3.1741149277902592e-01 -512 -512 -512
484 2 -3.4696592363462506e+00 -1.5455275708409801e+00 -3.3783370062841378e+00 -512 -512 -512
486 2 -3.2816030439328192e+00 -1.3893458491452058e+00 -1.9258312263624289e-01 -512 -512 -512
2 1 -1.6487178088440886e+00 -1.1892593731933387e+00 -3.5868770451413079e+00 -512 -512 -512
264 1 -1.8431752295723727e+00 -3.1601814981733267e+00 -6.3291888446872235e-01 -512 -512 -512
247 1 -3.4205006372340971e+00 -3.0799672483549041e+00 -5.3931857342333656e-01 -512 -512 -512
362 1 -3.1978029980765754e-01 -3.4045517196559514e+00 -6.4192892351143227e-01 -512 -512 -512
466 2 -2.8920018203183386e+00 -4.4860260763477999e-01 -2.2230246062550423e+00 -512 -512 -512
225 1 -1.4469856898482303e+00 -3.5161144933577386e+00 -2.1787669331634274e+00 -512 -512 -512
296 1 -1.9699943096222032e+00 -2.2399590716182400e+00 -1.2113578480997189e-01 -512 -512 -512
120 1 -3.0255884430290476e+00 -3.0916867631057681e+00 -3.5035218874531298e+00 -512 -512 -512
388 1 -1.4624679799867510e+00 -1.6424254329506782e-01 -3.4792144438721087e+00 -512 -512 -512
500 2 -3.6501850850884487e+00 -2.5160914804192429e+00 -3.6731667506178236e+00 -512 -512 -512
337 1 1.2723096248433974e-01 -3.4965002986730136e+00 -1.7557519425804531e+00 -512 -512 -512
455 2 -2.5988979340426068e+00 -2.8977638699101340e+00 -1.7133182205802866e-01 -512 -512 -512
361 1 -8.8159273407945715e-02 -4.8801760137260741e-01 -3.1933408345584349e+00 -512 -512 -512
461 2 -3.5140341341719648e+00 -2.5824385748379228e+00 -1.2332830034094360e+00 -512 -512 -512
289 1 -2.1324550060732173e+00 -2.4896771650493292e+00 -3.5199367174281342e+00 -512 -512 -512
330 1 -2.1410381775576024e+00 -9.9113825004983003e-02 -1.8906340076715702e+00 -512 -512 -512
413 2 1.8578417770918909e-01 -2.6457509885663919e+00 -1.5426532080658091e+00 -512 -512 -512
253 1 2.8687954901402213e-01 -2.4663133725136346e+00 -3.2187854015894057e+00 -512 -512 -512
265 1 3.1781603707865491e-01 -3.5206406035764228e+00 -3.2519640413978816e+00 -512 -512 -512
20 1 3.3900639291977397e-01 -4.9334132517289486e-01 -1.8388372705317864e+00 -512 -512 -512
402 2 4.0343072969464489e-01 -3.0099167158710212e+00 -2.5172097963811519e+00 -512 -512 -512
205 1 4.5713159855627383e-01 -1.4143585055037140e+00 -3.2687249990981200e+00 -512 -512 -512
12 1 7.2214585942761778e-01 -3.0072631610674976e+00 -9.5777828446504554e-01 -512 -512 -512
31 1 7.9455972562047128e-01 -2.2282048552018172e+00 -1.4623891375965048e-01 -512 -512 -512
94 1 8.2734353001846594e-01 -1.4339260834316874e+00 -2.0926824055568733e+00 -512 -512 -512
46 1 8.4298697245539467e-01 -1.9295159924311920e+00 -1.1526603130081150e+00 -512 -512 -512
473 2 -3.0726987994840851e+00 -3.6796851811754077e+00 -1.0622174462584688e+00 -512 -512 -512
446 2 8.6321529338381664e-01 -2.1177025440921704e+00 -2.6699429864338780e+00 -512 -512 -512
308 1 8.6227578928307169e-01 -5.0821732712246792e-01 -2.7306618198634363e+00 -512 -512 -512
377 1 9.7254506672680074e-01 -2.6487365250081170e+00 -1.9646373211728396e+00 -512 -512 -512
192 1 1.0889451749551093e+00 -6.3155698249408720e-01 -1.1364147819948296e+00 -512 -512 -512
368 1 1.0979195056031466e+00 -1.2095141265676150e+00 -2.4972873448747368e-01 -512 -512 -512
242 1 1.1717337212992320e+00 -8.4482725426941574e-02 -1.5400400354696098e-01 -512 -512 -512
475 2 -2.2762879674815961e-01 -1.9232045127092898e+00 -3.6681303781011723e+00 -512 -512 -512
149 1 1.2265838069788582e+00 -2.8772723671068063e+00 -3.0257757337839677e+00 -512 -512 -512
426 2 1.2350885855530511e+00 -1.2936186170700843e+00 -2.8369761554828812e+00 -512 -512 -512
345 1 -4.8686869000011512e-01 -2.9975082161922071e+00 -3.6975728148957914e+00 -512 -512 -512
418 2 1.2684008739914980e+00 -6.6065905963080596e-01 -1.9706039657411636e+00 -512 -512 -512
144 1 1.3798617931543053e+00 -1.9061784038522880e+00 -3.4270710665880131e+00 -512 -512 -512
121 1 -3.7155613150870304e+00 -1.1288130182042626e+00 -1.5426860110257912e+00 -512 -512 -512
478 2 1.4236459786600171e+00 -2.7126886843274485e+00 -4.8976524261017751e-01 -512 -512 -512
257 1 -3.1484865242563740e+00 -2.2085119909442512e+00 -2.1218578395936660e-02 -512 -512 -512
156 1 9.5685452427490292e-01 -3.7236365379215970e+00 -2.3767530366941330e+00 -512 -512 -512
212 1 1.4500783270958730e+00 -8.1502242564900262e-01 -3.5233582362236757e+00 -512 -512 -512
260 1 1.4747252398421105e+00 -3.6037729595582042e+00 -4.5043603943668176e-01 -512 -512 -512
433 2 1.5917601232230392e+00 -2.1426389951764300e+00 -1.5627807107297897e+00 -508 -512 -512
38 1 1.7186140434192372e+00 -1.9300593447672323e+00 -2.4098048711483786e+00 504 511 -513
185 1 1.7597154452064836e+00 -2.9436261062055942e+00 -1.2585795542071860e+00 -511 -512 -512
398 1 1.8105261479351351e+00 -1.2865742574673775e+00 -1.5528897684583081e+00 510 511 -513
110 1 1.8191597168409550e+00 -1.9384554619312728e+00 -6.9552248949525008e-01 -505 -512 -512
394 1 2.2732628538520943e+00 -2.4215050950828294e+00 -3.1499096845888666e+00 -512 -512 -512
428 2 2.5676615322621115e+00 -3.0345107217187470e+00 -1.6031034538145601e+00 -511 -512 -512
142 1 3.5618038473011464e+00 -3.6022412814012967e+00 -1.4231143019436465e+00 510 511 -513
206 1 3.1174844846484704e+00 -2.7445957350161025e+00 -9.8424322821178523e-01 500 511 -513
181 1 3.2432609870001952e+00 -2.8245041859136659e+00 -3.0725940739025761e+00 -512 -512 -512
74 1 3.6548547167460694e+00 -1.8699657810646777e+00 -7.5761628944257975e-01 -510 -512 -512
30 1 3.1488483332214448e+00 -2.7458287663979686e-01 -1.2873638039733923e+00 -508 -512 -512
217 1 3.1371499717404281e+00 -3.4349308541870243e+00 -1.2575891336906109e-01 -508 -512 -512
273 1 2.7997451785182785e+00 -3.4180429579770077e-02 -2.6006720041894482e+00 -512 -512 -512
425 2 2.7119112510587162e+00 -2.5648073091372794e+00 -2.4031095553462594e+00 -510 -512 -512
241 1 2.0839354596377588e+00 -2.3650101043762373e-01 -1.6550333280653797e+00 511 511 -513
49 1 3.7283867259109367e+00 -2.9226910432150177e-01 -2.1887267873445433e+00 -509 -512 -512
235 1 2.8014492098495745e+00 -4.8635198972416260e-01 -3.7369674599023739e-02 504 511 -513
400 1 1.9878919301718256e+00 -7.0671383732030257e-01 -6.3632579527214350e-01 -510 -512 -512
440 2 3.3235259105907269e+00 -1.8954648312287194e+00 -1.5899840960530383e+00 505 511 -513
4 1 2.7988033051245069e+00 -1.2918307127552722e+00 -1.0024168640569768e+00 -503 -512 -512
1 1 3.2010826854220764e+00 -1.9001527172501167e+00 -3.5839879592629602e+00 -508 -512 -512
439 2 2.7077484512451391e+00 -2.0744265754668429e+00 -6.2228771395380500e-01 -510 -512 -512
351 1 3.7193118028927690e+00 -7.6305900967545481e-01 -5.2639066740159990e-01 511 511 -513
114 1 2.5157917279787516e+00 -3.6636462974474662e+00 -9.8880117325192529e-01 -512 -512 -512
138 1 1.9025475308966402e+00 -8.4641575421234894e-01 -2.5241974634366344e+00 506 511 -513
363 1 1.9485423016205679e+00 -2.9960441072180966e+00 -2.2862654287147430e+00 -510 -512 -512
95 1 3.3140300988498343e+00 -8.9702897118455871e-01 -3.1160217714251650e+00 503 511 -513
220 1 3.4732028006175555e+00 -2.6839786802853585e+00 -1.9736992302644769e+00 -502 -512 -512
111 1 2.2952533957991590e+00 -2.8205383849438355e+00 -3.2654346392822564e-01 511 511 -513
179 1 2.8575369483637592e+00 -3.4919415519694348e+00 -2.2789974123957619e+00 -510 -512 -512
113 1 3.2075561446780223e+00 -1.8300457830089676e+00 -2.5182116764487184e+00 -509 -512 -512
124 1 2.2995060077588190e+00 -3.4713978341439051e+00 -3.2962961602774139e+00 -512 -512 -512
107 1 2.8194418026795689e+00 -9.8594558639692842e-01 -2.0403033695045645e+00 510 511 -513
219 1 2.4454924837599390e+00 -3.4149113987733459e-01 -3.5895774954742574e+00 -510 -512 -512
372 1 2.4826039729963214e+00 -2.1532302431815493e+00 -1.6349637602219849e+00 504 511 -513
129 1 2.3506756369408746e+00 -1.3653876518906576e+00 -3.2891598407525611e+00 509 511 -513
423 2 2.0272792397369161e+00 -7.1910202701697123e-03 -1.7192458602972138e-02 503 511 -513
16 1 -2.5559897120065882e+00 -1.2004241591285911e+00 1.2597531735798930e+00 511 511 -513
14 1 -1.0270394417690412e+00 -1.9692844271666814e+00 2.1385424622825515e+00 -510 -512 -512
279 1 -5.7746636223988146e-01 -2.2484649333766975e+00 3.0318355843912106e+00 510 511 -513
73 1 -9.7197547716564081e-01 -3.0248083687642944e+00 2.1954840866956649e+00 -511 -512 -512
41 1 -1.8389568904659896e+00 -2.2984988774325918e+00 1.5589238905796674e+00 509 511 -513
194 1 -2.3828280622809515e+00 -3.8599521187781116e-01 2.1910358266319379e+00 508 511 -513
202 1 -8.4212364523852123e-01 -2.1099539507458505e+00 1.0975068235100323e+00 503 511 -513
382 1 -1.6956285881813726e+00 -1.5374619308433677e+00 7.4090327315096127e-01 -511 -512 -512
483 2 3.7389491571782507e-02 -2.1144984880895321e+00 1.2304357646515602e+00 -509 -512 -512
468 2 -2.1439337695997569e+00 -7.4825705197024650e-01 6.2161630825740533e-01 -511 -512 -512
397 1 -2.5346848768842585e+00 -2.2097873747499928e+00 2.3834809002652562e+00 -508 -512 -512
324 1 -1.6113172088704122e+00 -6.3999692082720872e-01 1.3344982208889253e+00 -511 -512 -512
371 1 -1.4305004042580358e+00 -7.2134053896325279e-01 2.9406111454941031e+00 511 511 -513
496 2 -1.6823805190275798e+00 -2.5207100029965126e+00 2.3994224334181697e+00 508 511 -513
196 1 -1.9058882039776497e+00 -1.3421995422012487e+00 2.1331613037258887e+00 -510 -512 -512
223 1 -3.6003000254409572e+00 -2.3256975292175612e+00 9.2696308044878473e-01 -511 -512 -512
263 1 -1.7142696181235157e+00 -1.8906173248926783e+00 3.0454751258031920e+00 -512 -512 -512
200 1 -2.4737257608868117e+00 -1.1389260866126016e+00 3.1479233560871767e+00 -504 -512 -512
298 1 -3.0479137404741001e+00 -1.3036097885654048e+00 2.2511945272638880e+00 -510 -512 -512
488 2 -1.2893607082773233e+00 -1.4546795584292256e+00 1.4893989494612518e+00 -511 -512 -512
92 1 -1.2214826873602944e+00 -3.1162971962256458e+00 1.1080326311741264e+00 507 511 -513
499 2 -2.8739415848416185e+00 -1.9532540911297187e+00 1.5732602092083448e+00 511 511 -513
305 1 -2.2389124882936842e+00 -3.2265777241812348e+00 2.3089787732946161e+00 510 511 -513
158 1 -3.5582219670155943e+00 -2.2838244520395619e+00 2.0061425946486735e+00 -511 -512 -512
17 1 -1.4476850293931514e+00 -2.8931641441243046e+00 3.1749200075656883e+00 -509 -512 -512
457 2 -1.6205226510843711e+00 -2.4185176634389944e+00 6.9675724752247481e-01 -512 -512 -512
105 1 -2.5131688922459228e+00 -2.1813917827375167e+00 7.7666038761713851e-01 508 511 -513
392 1 -3.1231287325274160e+00 -6.9440618268009002e-01 4.3533116544265171e-01 -511 -512 -512
315 1 -4.1556388331890259e-01 -3.4902146550354791e+00 5.2238574842173913e-01 508 511 -513
459 2 -1.5247168863397325e+00 -3.5900128030240164e+00 2.6378796448033204e+00 510 511 -513
443 2 -1.4927640110220879e+00 -2.8769089872668863e-01 2.1551704918567869e+00 511 511 -513
497 2 -9.6194719345207025e-01 -1.4511403671139687e+00 2.8303790420364128e+00 -511 -512 -512
48 1 -8.7747346325487952e-01 -9.2259543880062278e-01 2.0477266156660208e+00 506 511 -513
415 2 -3.1377257699282635e+00 -1.5681077102889618e+00 6.9410341690457900e-01 505 511 -513
307 1 -6.9412390645569522e-01 -1.0496704277627837e+00 8.6592856524176431e-01 -512 -512 -512
3 1 -2.9629329155961068e+00 -2.0838703829907543e+00 3.4219947316570987e+00 -511 -512 -512
449 2 -7.3715342124377914e-01 -3.3637268899625257e+00 3.0115713922909353e+00 -510 -512 -512
323 1 -3.1000132502932511e+00 -3.0106176193762386e+00 2.8941219525853250e+00 -511 -512 -512
462 2 -2.3098758976576015e+00 -2.6655179919985463e+00 3.1035925366898174e+00 -507 -512 -512
132 1 -2.8398919055543077e+00 -2.8508506518025416e+00 1.4793276806291495e+00 -511 -512 -512
281 1 -9.1276550140324542e-02 -1.3077810357674928e+00 2.6902941686607869e+00 508 511 -513
182 1 -2.2800643874851185e+00 -3.5305810594696210e+00 3.3539893555434142e+00 -504 -512 -512
204 1 -3.0433406974886137e+00 -2.3530995011274802e-01 3.0627649809053206e+00 -510 -512 -512
141 1 -3.2542717604587370e+00 -4.6548662062215174e-01 1.5269075250022763e+00 -511 -512 -512
83 1 -2.1330388034455039e-01 -1.9680370032693340e-01 2.3975306296050483e+00 -507 -512 -512
125 1 -1.9771306150377832e-01 -2.9356337069742584e+00 1.3909029403527939e+00 510 511 -513
135 1 1.2467032801894096e-02 -1.3271917253046612e+00 1.6081282815841296e+00 -509 -512 -512
153 1 -5.3711590161183187e-01 -1.2681323838232883e-01 3.4751522845963700e-01 -511 -512 -512
424 2 -7.1125518569469204e-01 -3.6510256819979463e+00 1.5983362786825102e+00 -510 -512 -512
59 1 2.6875325665616234e-02 -3.1501762949098997e+00 2.6813383229627381e+00 -511 -512 -512
191 1 5.4762249056761192e-03 -2.2223955007622185e+00 2.1300673003908241e+00 507 511 -513
216 1 5.7042456385358875e-02 -3.2387447256119772e-01 1.3018798006058465e+00 -507 -512 -512
24 1 -1.4123464545941036e+00 -7.4526926836027441e-01 9.8137074566444049e-02 -507 -512 -512
375 1 -2.0942726501183140e+00 -3.1658090254396680e+00 5.1110506297590286e-01 -511 -512 -512
359 1 -9.3336194396508043e-01 -1.7506551328262561e+00 7.0833246900042113e-02 506 511 -513
208 1 -2.4340202449515886e+00 -4.7799678892725517e-02 1.0873437214928843e+00 510 511 -513
476 2 -2.0291495926571224e+00 -3.1538736802118885e+00 1.4308505130349416e+00 -511 -512 -512
258 1 -3.1593302095487656e+00 -3.1986148075394247e+00 4.8407842528155554e-01 -511 -512 -512
188 1 -1.1136139844053061e+00 -2.8371181826220515e+00 8.6869955962542988e-02 -512 -512 -512
89 1 -5.5706330986776509e-01 -1.5572186019406775e-01 3.3928460807625611e+00 510 511 -513
176 1 -3.2806218867977353e+00 -3.5770212798392880e+00 2.0497665555803395e+00 509 511 -513
213 1 -6.1973817179066204e-01 -1.1836461837765824e+00 3.6000844125231706e+00 -511 -512 -512
72 1 -1.7066779938616827e-01 -2.4258958209027242e+00 3.2947291444813809e-01 -509 -512 -512
246 1 -3.6639965456268078e+00 -1.2923234444645186e+00 3.2434584780133435e+00 -512 -512 -512
123 1 -3.6811433676472602e+00 -1.4022697012685619e+00 1.3952850205982883e+00 -512 -512 -512
299 1 3.8847378211068717e-01 -6.0505416325076711e-01 3.0791441477043646e-01 -512 -512 -512
477 2 3.8901551698447756e-01 -3.4395119515809736e+00 9.3971588118761362e-01 -512 -512 -512
52 1 4.9912615459440746e-01 -3.2129819734503129e+00 5.6815624637925666e-02 -512 -512 -512
234 1 4.6030202796884501e-01 -2.1226974163813401e+00 3.2759465594555555e+00 -512 -512 -512
47 1 4.7970760360492060e-01 -6.8045683328693274e-01 3.3475960041420092e+00 -512 -512 -512
152 1 4.2600027437132182e-01 -1.5828958326363591e+00 6.5710923427471402e-01 -512 -512 -512
126 1 6.9774432267084885e-01 -2.5753547474209331e+00 8.8091821971239748e-01 -512 -512 -512
395 1 6.6204544809375809e-01 -6.7359287327782846e-01 2.1499310595989365e+00 -512 -512 -512
11 1 8.5025965276443882e-01 -3.1277330498516531e+00 3.3901214864038569e+00 -512 -512 -512
224 1 9.6477419777150830e-01 -3.6823564693294153e+00 2.4675161812203785e+00 -512 -512 -512
464 2 9.7640906967583740e-01 -1.4037870295486612e+00 3.4567076123509968e+00 -512 -512 -512
326 1 9.7468600318662313e-01 -1.5493915131529632e+00 2.5869041451191905e+00 -512 -512 -512
268 1 9.3267654990449467e-01 -2.6123850275655580e+00 2.3598805175086821e+00 -512 -512 -512
254 1 9.8142027590390812e-01 -1.8586894937953700e+00 1.5801416499616274e+00 -512 -512 -512
19 1 1.0260083052381979e+00 -8.7208393129028616e-01 1.1761890665915735e+00 -512 -512 -512
169 1 1.0475551982161382e+00 -3.2752341512708454e+00 1.5181101340555476e+00 -512 -512 -512
458 2 -3.4249076000107350e+00 -3.6664755029489453e+00 1.1733976403506170e+00 -512 -512 -512
419 2 1.2230850168758880e+00 -1.7350260059396616e-01 7.2710171793705980e-01 -512 -512 -512
353 1 -2.4298061313173931e+00 -1.3227300321407252e+00 2.1395465416034209e-02 -512 -512 -512
270 1 -2.2918183820925009e+00 -1.0376254998229006e-01 4.0607805809986797e-02 -512 -512 -512
479 2 -2.2697541709894389e+00 -5.1134770533644591e-01 3.7300982004465593e+00 -512 -512 -512
297 1 1.5445799453120412e+00 -2.8880197171738757e+00 3.6671846731537849e-01 -512 -512 -512
320 1 1.5194311285096354e+00 -1.8311099853159432e+00 5.3516866275502961e-01 -512 -512 -512
28 1 1.5877702118882167e+00 -2.3885209473837459e+00 3.1566809011933610e+00 -512 -512 -512
164 1 1.7369572384116441e+00 -1.6719606595392156e-01 3.0956434662659409e+00 -512 -512 -512
272 1 1.7124666724088393e+00 -7.0031601040585656e-01 2.1728363044522472e+00 -509 -512 -512
410 2 1.7806907256064251e+00 -3.3842284043838879e+00 1.0310163732356803e+00 511 511 -513
36 1 1.8181920770321809e+00 -7.6263436430830156e-01 4.2130497168735692e-01 510 511 -513
317 1 1.8280892481831148e+00 -1.3035671245396654e+00 3.1430203145532514e+00 -510 -512 -512
259 1 1.8280851015606125e+00 -3.7106119575847365e+00 3.1072817802241741e+00 510 511 -513
494 2 2.7554709220739038e+00 -6.9564851216986412e-02 7.7833331180865839e-01 510 511 -513
329 1 1.9548092459486184e+00 -1.3551777031849279e+00 1.3673933340643853e+00 -511 -512 -512
474 2 3.5749980063502513e+00 -1.5881307344848552e+00 2.4472483753910086e+00 510 511 -513
269 1 1.8497053418316267e+00 -2.5177039592661976e+00 1.3462030380176278e+00 509 511 -513
492 2 2.5362693301414141e+00 -3.2160437760995206e+00 1.7199251380122473e+00 -510 -512 -512
159 1 1.9311054199305651e+00 -1.8975484923697916e+00 2.2559898293989069e+00 -512 -512 -512
239 1 2.7672792916038742e+00 -1.7147552574786720e+00 2.9354455455285895e+00 509 511 -513
444 2 2.2635007966057876e+00 -2.3393840905140166e+00 4.3274464358914200e-01 -510 -512 -512
445 2 2.2239808711084845e+00 -1.9625254589554235e+00 3.5764441920257348e+00 -512 -512 -512
178 1 1.9159262537972066e+00 -2.9699392532678557e+00 2.3265391354179230e+00 511 511 -513
147 1 2.5886925803480794e+00 -3.0680885507393238e+00 8.2454367219460734e-01 -509 -512 -512
50 1 3.2180283043135245e+00 -2.0283099043602260e-01 1.5269143304182387e+00 -512 -512 -512
442 2 3.4505244890578681e+00 -3.0542242193709597e+00 6.1995287046191061e-01 -512 -512 -512
374 1 2.8895778623487414e+00 -1.3837642018361214e+00 1.9462651819360537e+00 -509 -512 -512
7 1 2.6283924438333206e+00 -6.9161271983510453e-01 2.8085926045337888e+00 510 511 -513
404 2 3.6145927576788055e+00 -6.9244888667457838e-01 8.9912996157803393e-01 -512 -512 -512
489 2 2.4888001156251041e+00 -6.6141909379490915e-01 1.7557611277630722e+00 -509 -512 -512
384 1 3.4130600849334933e+00 -3.1219017938984992e+00 1.5105894709230596e+00 -512 -512 -512
381 1 3.6069258050012585e+00 -6.3854053469573424e-01 2.4060340510053160e+00 -510 -512 -512
355 1 2.7823303638398635e+00 -9.3798602228309358e-01 9.3159639197817823e-01 -509 -512 -512
37 1 2.4783861662306568e+00 -1.5516803511145256e+00 6.1321963685802228e-02 509 511 -513
470 2 3.5912509903848595e+00 -3.0221865580280807e+00 2.4082595216689779e+00 -511 -512 -512
237 1 2.8263642584854467e+00 -3.4127902136782451e+00 2.5899390176427155e+00 -509 -512 -512
302 1 2.0251217978939260e+00 -1.5074341440075711e-01 1.2441597677560297e+00 510 511 -513
378 1 3.1833871585087015e+00 -2.3928737685221555e+00 8.4591350763279838e-02 -510 -512 -512
116 1 2.8232804570319829e+00 -2.0291396805369724e+00 1.0664155000881430e+00 -510 -512 -512
198 1 3.5202411684655375e+00 -1.4111842096905716e+00 3.4455510562558045e-01 509 511 -513
427 2 2.9419459690878633e+00 -1.0877866339037299e+00 3.5545659785450670e+00 -511 -512 -512
56 1 3.4095078445257152e+00 -3.2517747533187258e-01 3.4239715812689142e+00 -509 -512 -512
93 1 3.5019206976130985e+00 -3.2917700970826353e+00 3.4247655042002401e+00 -512 -512 -512
115 1 2.8523292070584074e+00 -2.4534853329128219e+00 2.1183787107696808e+00 -511 -512 -512
228 1 3.5676651625800715e+00 -2.3389751246886967e+00 2.9761322724394419e+00 -510 -512 -512
309 1 2.5942514036331272e+00 -2.7291555561385201e+00 3.3517129579219014e+00 -512 -512 -512
102 1 -3.6357002463344803e+00 3.3344681293176639e+00 -5.2804020903083559e-01 -512 -512 -512
44 1 -3.3616491669397597e+00 1.0874718328528208e+00 -3.4805133017605501e+00 -512 -512 -512
311 1 -3.5403431739455486e+00 4.5157882366528623e-01 -1.4503879610007697e+00 -507 -512 -512
432 2 -3.4675962203305244e+00 2.0180478002899211e+00 -3.6535965129271131e+00 -511 -512 -512
406 2 -3.4038256317112849e+00 3.2751401383049141e+00 -2.9224884375214288e+00 509 511 -513
322 1 -3.4571934744356931e+00 1.7893503872006344e+00 -2.7350485645699893e+00 -510 -512 -512
10 1 -3.1415743465392727e+00 1.6178812404671681e+00 -6.5388271931889097e-01 -510 -512 -512
209 1 -3.2107441531768335e+00 3.0357598228834752e+00 -1.4847350518050546e+00 -511 -512 -512
435 2 -3.1143416440833480e+00 2.1669810373123171e+00 -1.3233477542859382e+00 -512 -512 -512
165 1 -3.2130791161660737e+00 1.1926440498638868e-01 -3.7248542335699630e-01 -512 -512 -512
321 1 -3.0631125473208596e+00 1.3780274289772607e+00 -1.7797376358419967e+00 511 511 -513
139 1 -2.9258003768509466e+00 4.3396229936039576e-01 -2.3939575189216127e+00 -511 -512 -512
104 1 -2.8982978275182174e+00 2.5979435308198071e+00 -3.1550748877027917e+00 511 511 -513
146 1 -2.8228059288811069e+00 2.6468904295018096e+00 -5.8382622476321533e-01 509 511 -513
155 1 -2.7038481257546150e+00 3.3658986493143934e+00 -2.3759567656422131e+00 -508 -512 -512
163 1 -2.6975855476399380e+00 2.3242923143409322e+00 -2.1188419908532481e+00 -511 -512 -512
15 1 -2.6456802621389794e+00 2.5813153550721024e-01 -3.4464989419403822e+00 -511 -512 -512
332 1 -2.6192406107048480e+00 3.6807244869319722e+00 -2.9483456834779531e-01 -512 -512 -512
174 1 -2.6345557281447993e+00 7.6905994924742727e-01 -9.4034050678215086e-01 511 511 -513
335 1 -2.4855988059306457e+00 1.3636154018005855e+00 -2.7651803719781514e+00 -511 -512 -512
454 2 -2.3767281812661185e+00 2.7604561034803230e+00 -1.3670930246133328e+00 -512 -512 -512
306 1 -2.2546791107925177e+00 3.6385166058379572e+00 -1.3588953284492837e+00 510 511 -513
68 1 -2.2323316906593700e+00 1.8999183100332284e+00 -1.2266742465541749e+00 -511 -512 -512
81 1 -2.1989004646009720e+00 1.8944861257754639e+00 -1.6312999194582556e-01 -511 -512 -512
325 1 -2.0749017159538243e+00 9.5406288017977614e-01 -1.8035963186946673e+00 -512 -512 -512
87 1 -1.9246172218769679e+00 1.0627558691587455e+00 -3.6424083519496504e+00 -509 -512 -512
275 1 -1.9225424129449789e+00 2.1935168885907133e+00 -3.1612690939466201e+00 -511 -512 -512
256 1 -1.9185680146935229e+00 8.7717813569979564e-01 -1.1703134613387389e-01 -511 -512 -512
301 1 -1.8098669080937135e+00 3.3041309773266510e+00 -2.9808494181459642e+00 -508 -512 -512
482 2 -1.8153433050922743e+00 1.1791826480755936e+00 -9.3855520123651237e-01 -512 -512 -512
262 1 -1.8328282732543915e+00 4.8655086367945133e-01 -2.7360853657736945e+00 -511 -512 -512
160 1 -1.7597637703847344e+00 2.7868980662961431e+00 -7.0794689659260746e-01 -511 -512 -512
106 1 -1.7633795087956103e+00 2.9298823604652644e+00 -1.9766166394563440e+00 -511 -512 -512
148 1 -1.7127784005172644e+00 1.8773694898010835e+00 -2.1631478530242996e+00 511 511 -513
348 1 -1.7160224780068467e+00 2.9506950618024108e-01 -9.8899359779393459e-01 511 511 -513
420 2 -1.4688111308264027e+00 8.9199252307398780e-02 -1.7572412027512385e-01 -511 -512 -512
411 2 -1.3596537776511921e+00 2.7960490453907725e+00 -3.5201803890529599e+00 511 511 -513
434 2 -1.3226939103055488e+00 1.0172399196974653e+00 -2.2650578460667790e+00 511 511 -513
314 1 -1.1569714683306356e+00 3.5746210217928716e+00 -1.1330869984369278e+00 -511 -512 -512
53 1 -1.2066993028779689e+00 1.7423779624748579e+00 -5.3747408029032995e-01 -511 -512 -512
128 1 -1.1518623533186836e+00 1.4731993946429642e+00 -2.9620014551648333e+00 -512 -512 -512
367 1 -1.1330940692657339e+00 1.3288384676097711e+00 -1.4811726681826847e+00 511 511 -513
62 1 -1.1220818048238654e+00 2.7471165304823275e-01 -1.8631784278504209e+00 511 511 -513
91 1 -1.0213909814815554e+00 2.4035932923985688e+00 -1.4433784002889083e+00 -511 -512 -512
293 1 -1.0329045543284701e+00 2.5267194224446343e+00 -2.7036929475609166e+00 -512 -512 -512
417 2 -2.5751345967172456e+00 3.6211210700655667e+00 -3.2854221505095698e+00 508 511 -513
240 1 -3.6885538346702917e+00 1.2970876788932584e-01 -3.1494844198022447e+00 -512 -512 -512
498 2 -8.8065032883184857e-01 2.5619847223532948e+00 -5.9470604613642886e-01 -512 -512 -512
294 1 -8.8480196412421641e-01 7.4108960812384028e-01 -1.9663822988645796e-01 -512 -512 -512
436 2 -8.9686487893722466e-01 6.0727327948132226e-01 -1.0576035931833654e+00 -512 -512 -512
412 2 -8.2123316046838690e-01 1.8674208670791690e+00 -2.1659182518541349e+00 -512 -512 -512
18 1 -7.6006948675999331e-01 3.2681260464686490e-01 -2.8611668634803253e+00 -512 -512 -512
29 1 -6.8478920175626712e-01 3.4264213929494614e+00 -3.1250251785198762e+00 -512 -512 -512
8 1 -6.5517131079835078e-01 3.2680866664598134e+00 -2.0488925453165376e+00 -512 -512 -512
118 1 -5.4956455765049439e-01 2.5083174538276425e+00 -3.6825444917081072e+00 -512 -512 -512
310 1 -4.6130074103206464e-01 3.1221717639809214e+00 -9.1379014350035703e-02 -512 -512 -512
472 2 -4.8555270013351048e-01 1.5390824539223691e+00 -5.6397064681667164e-02 -512 -512 -512
54 1 -4.2096567112882388e-01 1.0930468524880159e+00 -2.2093225991516565e+00 -512 -512 -512
408 2 -3.7590945070591841e-01 1.1375324640127684e+00 -3.1170650286780761e+00 -512 -512 -512
252 1 -2.5674513466205529e-01 1.2335065303123947e+00 -9.0603295228573133e-01 -512 -512 -512
90 1 -1.3639993221540037e-01 3.0666508852853638e+00 -1.1342258566570762e+00 -512 -512 -512
287 1 -1.6341697280973300e-01 3.1244689843821449e-01 -1.4288983092200174e+00 -512 -512 -512
166 1 -7.7088241592949469e-02 1.9841003276264302e+00 -1.6795651277056982e+00 -512 -512 -512
100 1 -1.2551239318123786e-01 1.9579097536021721e+00 -2.8151149437129410e+00 -512 -512 -512
172 1 -3.5790480734285257e-02 2.1944402448588778e+00 -5.3590781216699801e-01 -512 -512 -512
460 2 2.5887459335942165e-02 3.5433842878168433e+00 -2.5495627039701487e+00 -512 -512 -512