ITEM: TIMESTEP
462
ITEM: NUMBER OF ATOMS
500
ITEM: BOX BOUNDS xy xz yz pp pp pp
-3.7345 3.79425 0.059752
-3.7345 3.7345 0
-3.7345 3.7345 0
ITEM: ATOMS type xu yu zu 
1 -2.84125 -2.08118 -2.57101 
1 -3.06122 -3.08432 -2.89672 
1 -2.49181 -2.3529 -3.58852 
1 -2.18817 -3.36747 -3.46625 
1 -1.85785 -2.54576 -2.75883 
1 -0.921924 -2.70177 -2.20756 
2 -1.73405 -3.05248 -2.06562 
1 -0.761757 -2.33288 -3.18092 
1 0.283312 -2.24607 -3.37234 
1 -0.32675 -3.27579 -3.39046 
2 -0.1716 -2.73429 -2.67237 
1 0.621054 -3.06099 -2.77455 
1 -3.23167 -0.406004 -3.32016 
1 -3.06416 -0.998651 -2.42264 
1 -2.69737 -1.3595 -3.38179 
1 -2.33035 -0.494168 -1.87111 
1 -2.12894 -0.556187 -2.99027 
1 -2.05898 -1.43637 -2.37888 
1 -1.01031 -1.60751 -2.45892 
1 -1.63452 -1.68042 -3.35481 
2 -1.26579 -0.928986 -3.0247 
1 -1.37812 -0.651318 -2.19627 
1 -0.00836387 -1.89885 -2.39995 
1 0.351323 -0.830186 -3.35725 
2 0.589648 -1.52357 -2.9209 
1 -0.460616 -0.648277 -2.699 
1 0.447264 -0.946709 -2.23476 
1 -0.592503 -1.35758 -3.50442 
1 -2.64523 -2.84139 -1.87859 
1 -3.43275 -2.77876 -1.15975 
1 -2.72549 -3.32318 -0.390544 
1 -2.46922 -2.35356 -0.855791 
1 -3.36356 -2.23243 -0.184961 
2 -3.56427 -3.08978 -0.340862 
1 -1.6414 -3.31704 -0.21098 
1 -1.73767 -2.23359 -1.71814 
1 -1.90934 -3.24124 -1.22717 
1 -1.37503 -2.42048 -0.734116 
1 -0.732996 -3.08948 -1.23514 
1 -0.641375 -1.99443 -1.45652 
1 0.161112 -2.75642 -1.81399 
1 0.106806 -2.56795 -0.756818 
1 -0.480841 -3.33136 -0.190653 
1 0.618847 -3.46268 -0.357997 
2 0.666963 -3.10309 -1.17181 
1 -3.19643 -1.8406 -1.58538 
1 -3.5633 -1.11919 -0.84396 
1 -3.35672 -0.204834 -1.62827 
2 -3.00568 -0.996852 -1.53822 
1 -2.64093 -0.525896 -0.884857 
1 -2.70065 -1.41427 -0.309836 
2 -3.47373 -0.23354 -0.742816 
1 -2.22347 -1.39125 -1.29095 
2 -1.43215 -1.39401 -1.73004 
1 -1.57776 -0.333287 -1.15325 
2 -1.94402 -0.952966 -0.486204 
1 -1.23781 -1.30932 -0.899436 
2 -0.812697 -0.54282 -0.767169 
1 -0.575326 -1.85459 -0.306246 
1 -0.519796 -0.914286 -1.63207 
1 0.391267 -1.67943 -1.37581 
1 -0.0692556 -0.993872 -0.687314 
2 0.363163 -0.69493 -1.39579 
2 -3.63826 -1.67415 -2.37293 
1 -1.98699 -0.116613 -0.171252 
2 -3.63072 -0.288632 -2.49506 
1 -1.2795 -3.45286 -2.90881 
1 -3.57902 -3.5356 -2.02931 
1 -2.24831 -3.67076 -2.4138 
1 -0.337052 -0.202547 -0.0749429 
1 0.52466 -1.71329 -0.222817 
1 -0.310554 -3.56126 -2.31118 
1 0.829607 -0.0649453 -2.75516 
1 0.944048 -3.56863 -1.89678 
1 -3.62127 -1.88335 -3.2172 
1 1.09194 -0.214965 -1.69651 
1 1.0913 -1.6139 -3.6569 
1 1.10355 -2.11342 -2.57002 
1 1.04705 -0.909996 -0.864254 
1 1.1719 -2.48351 -1.56085 
2 1.19551 -1.7666 -0.992032 
1 1.18322 -2.48748 -0.504485 
1 1.33562 -2.62513 -3.49265 
1 1.36624 -1.05705 -2.81457 
1 1.32287 -1.36909 -1.80052 
1 1.35787 -3.70749 -3.18919 
2 1.39015 -2.91323 -2.33025 
1 1.46916 -3.37721 -0.975558 
1 1.56076 -0.277857 -3.54303 
1 1.55908 -1.52101 -0.176609 
1 0.454935 -0.011997 -0.780027 
1 -1.23182 0.000152982 -3.07473 
1 -1.73283 -1.7328 -0.0368531 
1 1.87114 -0.191717 -2.47313 
1 -3.36798 -3.28637 1.6355 
1 -3.37236 -3.01388 0.537381 
1 -2.6234 -2.64139 1.28258 
2 -2.58436 -3.3551 0.665118 
1 -2.35319 -2.56508 0.228483 
1 -1.75887 -3.15463 0.902816 
1 -1.07881 -2.56118 0.346535 
1 -0.935669 -2.78874 1.62878 
1 -1.73569 -2.05069 1.02197 
1 -0.0205758 -2.48977 0.333404 
1 0.165831 -2.68922 1.56431 
1 -0.398789 -3.32577 0.909844 
2 0.66546 -3.47883 1.61868 
1 0.705297 -3.13124 0.730192 
1 0.535576 -1.7571 0.856159 
2 0.855003 -2.37444 0.291331 
1 -2.7776 -1.70942 0.720185 
2 -2.88957 -0.788453 0.927547 
1 -3.35841 -1.25357 1.5216 
1 -2.25696 -1.21257 1.53558 
1 -2.87144 -0.350058 1.7403 
1 -2.1443 -0.916089 0.482978 
2 -1.01365 -1.6644 0.444482 
1 -1.7379 -0.264826 1.62941 
1 -1.26397 -1.08468 1.05221 
2 -1.58209 -0.246212 0.656783 
1 -0.544838 -1.92774 1.14959 
1 -0.723367 -0.172054 0.928097 
1 -0.274669 -1.16038 0.453756 
1 0.113989 -1.15733 1.62676 
2 0.0918808 -0.552581 0.949941 
1 0.645825 -0.69129 0.125299 
1 -3.6801 -0.370211 0.95078 
1 0.121763 -0.0468864 1.69017 
1 -3.05776 -0.431164 0.0756152 
1 -3.70111 -1.26702 0.243049 
1 1.155 -1.67265 1.70459 
1 0.938374 -0.6733 1.14452 
2 1.21094 -1.26402 0.566428 
1 1.24078 -2.77424 1.61155 
1 1.55408 -2.11207 0.749006 
1 -1.18913 -0.796409 0.0208691 
1 1.63128 -3.17388 0.143005 
1 1.71874 -0.518967 0.211625 
1 1.84872 -0.191519 1.64961 
1 -3.51716 1.48892 -2.34444 
1 -3.34695 0.732306 -3.12864 
2 -2.73318 1.06051 -2.4749 
1 -2.81298 0.150207 -2.48675 
1 -2.10054 0.728252 -3.00503 
1 -2.56877 1.73666 -1.89482 
1 -2.91118 0.435696 -0.606042 
1 -2.97735 0.801612 -1.6256 
1 -2.58007 1.45773 -0.689194 
2 -2.3652 0.21044 -1.33105 
1 -3.50229 1.72044 -1.27642 
1 -3.5917 1.18139 -0.264163 
1 -2.66485 1.34883 -3.66011 
1 -1.9632 0.823688 -1.94839 
1 -1.92172 1.78522 -2.72498 
2 -1.86505 0.0764996 -2.41542 
1 -1.75689 0.696028 -0.880481 
1 -1.67856 1.68929 -1.31064 
1 -1.5231 1.49783 -0.173086 
1 -1.1409 1.04785 -2.75647 
2 -1.11967 1.15351 -1.76483 
1 -1.03104 0.295308 -2.00176 
1 -0.706034 1.43093 -0.96897 
1 -0.675446 0.303368 -0.992516 
1 -0.288525 1.06485 -2.11581 
1 -0.238243 1.4456 -3.13358 
2 -2.53462 0.0984164 -3.39363 
1 -0.147892 0.830933 -0.197499 
1 -0.154766 0.361844 -2.92023 
1 0.212451 0.935376 -1.19995 
1 0.278455 1.79736 -0.493714 
1 0.771634 1.7924 -2.46487 
1 0.789856 0.776917 -2.08966 
1 0.858591 0.972952 -3.16869 
1 0.957344 0.914611 -0.414738 
2 1.02269 0.570888 -1.24216 
2 1.00133 0.113838 -0.0169571 
1 1.07771 1.54293 -1.38389 
2 1.46569 0.559746 -2.6051 
1 1.54146 0.042645 -0.725068 
1 1.54854 1.72432 -3.61446 
1 0.0286537 0.0149442 -1.84552 
1 1.76303 1.37214 -2.50982 
1 1.8119 0.682833 -1.65904 
2 -3.21899 0.35204 1.37715 
2 -2.58171 0.992218 0.941391 
1 -3.31914 1.23334 1.37993 
1 -2.89411 1.6436 0.406696 
1 -3.28955 0.565733 0.525161 
1 -2.42924 0.658846 1.72413 
1 -2.43528 1.75206 1.764 
1 -2.25452 0.828124 0.156397 
1 -1.90914 1.60766 0.851021 
1 -1.56652 0.583547 1.00689 
1 -1.50037 1.24985 1.81361 
2 -1.1456 1.24766 0.60064 
1 -2.45671 0.0238639 0.85187 
1 -0.538308 1.75817 0.215355 
1 -1.13883 0.499001 0.0515085 
1 -0.435725 0.893487 0.99224 
1 0.167841 1.67995 1.45496 
1 0.314305 0.227831 0.618328 
1 0.489579 1.28785 0.499483 
1 0.764488 0.823557 1.44423 
2 1.00857 0.0370717 1.73692 
1 1.32674 0.228208 0.802198 
2 1.35204 1.11759 0.595934 
1 1.87986 0.919503 1.30835 
1 1.89087 0.673189 0.0450191 
1 1.91538 0.69738 -3.3589 
2 1.9381 1.5826 -1.6513 
1 1.94004 -1.1132 1.06561 
1 1.96533 1.41721 -0.760083 
1 2.02435 -1.869 -3.16064 
1 2.04342 -3.29096 -1.86534 
1 2.06866 -1.56863 -1.09784 
1 2.0703 -2.21178 -2.05255 
1 2.10883 -2.91888 -2.8547 
1 2.13141 1.60625 0.557969 
1 -3.72231 -2.07616 0.962257 
2 3.67167 -1.99261 -0.919954 
1 3.14507 -2.76195 -3.14435 
2 2.78808 -2.68568 -2.29649 
2 2.52088 -3.13795 -0.0252405 
2 3.13432 -0.779662 -3.72469 
1 2.50218 -3.64595 -0.740346 
1 2.44246 -0.847241 -3.13051 
1 3.45779 -0.989435 -2.90668 
1 2.92868 -1.68829 -3.72041 
1 3.15663 -2.66453 -0.523967 
1 3.5076 -1.09268 -1.82412 
1 3.19057 -0.335218 -1.1265 
1 2.18813 -2.60868 -1.02204 
2 3.26848 -0.779001 -0.349854 
2 2.80329 -1.11394 -1.27221 
1 3.01434 -1.98778 -1.5186 
1 2.91066 -3.56275 -2.45554 
1 2.18376 -0.325904 -1.48265 
1 3.02939 -3.05668 -1.5277 
1 2.50283 -3.69201 -3.44787 
1 2.94102 -0.314817 -2.24539 
1 2.98644 -1.59208 -0.510405 
1 2.95314 -1.86196 -2.60383 
1 2.35317 -1.17969 -2.08071 
1 3.69207 -2.52609 -2.22137 
1 2.3954 -0.716187 -0.541374 
1 3.61614 -3.71658 -0.956676 
1 2.28521 -2.27458 -0.0172692 
2 3.37912 -1.18077 1.04366 
2 3.31573 -2.032 0.155574 
1 3.31458 -3.61703 0.0248091 
1 3.22916 -3.63184 1.12125 
1 2.84535 -0.610054 1.47739 
1 2.75633 -1.74148 0.788153 
1 2.18075 -2.97946 1.06066 
1 3.10278 -2.60647 1.64225 
1 2.86188 -0.721769 0.423251 
1 2.17072 -2.01524 1.63704 
1 3.05725 -2.75266 0.551942 
2 2.36407 -1.36027 0.0948744 
2 2.53151 0.0142377 -0.0547946 
2 2.32045 1.47481 -3.28018 
1 2.99057 0.933038 -3.48426 
1 2.95624 1.61883 -2.6877 
1 3.57108 0.52374 -2.20531 
1 3.44402 0.0442957 -0.108016 
1 2.7922 1.26156 -1.64041 
2 2.82765 0.34844 -1.65623 
1 3.55846 0.651539 -1.12153 
1 2.54283 0.484866 -0.815453 
1 3.02951 1.69858 -0.65641 
1 2.54297 0.642687 -2.49099 
2 2.42329 0.0294727 -3.11752 
1 3.75168 1.66402 -3.4716 
1 3.29551 0.00234376 -3.19466 
1 3.40076 0.326278 1.65477 
2 3.70998 1.30435 0.616519 
1 2.91901 0.915527 0.130313 
1 2.95569 1.13662 1.17312 
1 2.46834 0.174557 0.805169 
2 3.33033 0.389248 0.750299 
2 2.52497 0.37686 1.64392 
1 -2.92588 2.15046 -2.89501 
1 -2.65078 3.18332 -3.17687 
1 -2.50155 2.81096 -2.09489 
2 -3.25247 2.26765 -1.99615 
1 -3.05479 3.1697 -0.373638 
1 -3.51043 2.82638 -1.35505 
1 -2.56164 2.44421 -1.09635 
1 -3.50149 2.22857 -0.290152 
1 -1.99716 3.2713 -0.750516 
1 -3.49295 2.97846 -2.45933 
1 -2.17396 2.30087 -3.65133 
1 -2.22054 2.36988 -0.0899567 
1 -3.6009 2.72905 -3.50901 
1 -2.78269 3.64746 -1.35554 
2 -1.99786 3.42495 -1.6383 
2 -1.43801 3.05333 -0.130625 
1 -1.60171 3.19402 -3.60001 
1 -1.52305 2.9198 -2.58086 
1 -1.51799 2.70572 -1.54816 
1 -1.1857 2.37399 -0.607189 
1 -1.0519 2.20845 -3.23733 
1 -0.92837 3.41283 -0.815864 
1 -0.967548 1.94567 -2.17532 
2 -0.774562 2.22529 -1.37417 
1 -0.574825 3.19665 -3.13158 
1 -0.498165 2.91799 -1.91492 
2 -0.251055 2.37283 -3.59908 
1 -0.147405 2.68669 -0.952127 
1 -0.0519034 2.39298 -2.70682 
1 0.0503483 1.94231 -1.65534 
2 0.00114751 3.40498 -0.437599 
1 0.147233 3.69106 -1.26122 
1 0.48439 3.34297 -2.77991 
1 0.541821 2.01956 -3.54285 
1 0.648703 2.86344 -1.7609 
2 0.648187 2.30437 -1.09313 
1 0.701326 2.85637 -0.349746 
2 0.989495 3.36639 -1.04573 
1 -1.20463 3.70063 -1.87772 
1 1.21753 2.66322 -3.05839 
2 1.26226 3.15832 -2.31648 
1 1.25767 1.87015 -0.00991984 
1 1.48941 2.41741 -0.912724 
1 1.58033 2.33258 -2.0155 
1 1.67693 3.30006 -0.3242 
1 1.76786 3.22691 -1.51719 
1 -2.41291 2.57941 0.996849 
1 -3.51023 3.13551 1.66052 
1 -3.16229 3.41036 0.687148 
2 -2.98069 2.6036 0.320914 
1 -3.45973 2.2763 1.00153 
1 -2.35555 3.62286 1.41425 
1 -2.16156 3.39133 0.304408 
2 -1.71234 3.14377 1.01257 
1 -1.55578 2.56979 1.68581 
1 -1.36576 2.48286 0.538965 
1 -1.20206 3.63182 1.51776 
1 -1.08827 3.54845 0.474565 
1 -0.853113 1.87111 1.24995 
1 -0.491112 2.92862 1.09908 
1 -0.477252 2.82027 0.0248407 
1 0.268634 3.43265 0.434618 
1 0.340464 2.35156 0.585182 
1 0.587638 3.1192 1.39469 
2 1.12242 3.60834 0.294582 
1 1.19557 1.84707 1.09602 
1 1.35617 2.78596 0.560948 
1 1.50416 3.70668 1.0907 
1 1.57157 2.79788 1.64541 
1 2.09274 3.29463 -2.53855 
1 2.07566 1.85847 1.69601 
1 2.81067 2.10247 -3.71517 
1 2.16094 2.26106 -2.89259 
1 3.00845 2.87239 -2.89375 
2 2.29824 2.97673 -0.861334 
1 2.43808 2.25971 -1.33918 
1 2.27475 2.40288 -0.155981 
1 3.1432 2.86758 -0.595461 
1 3.29905 2.28406 -1.96449 
1 2.8723 3.23989 -1.61482 
2 2.48137 2.61098 -2.14593 
2 3.63122 2.2201 -2.79584 
1 3.67825 3.7267 -3.22102 
1 3.14298 1.92523 0.406884 
1 2.41452 3.49853 1.64319 
2 3.11977 2.99765 1.36054 
1 3.34732 2.93468 0.502858 
1 2.38706 2.6152 0.94559 
1 2.4223 3.5649 0.445131 
1 3.11256 2.12613 1.55817 
1 -0.859171 0.39418 1.84823 
2 -0.0491644 0.83745 1.85439 
1 -0.815778 -0.739727 1.9397 
1 -3.38329 -2.20253 1.98854 
2 -2.72711 -2.88475 2.14701 
1 -3.42506 -3.02213 2.66086 
1 -2.30533 -2.08994 2.17328 
1 -2.32566 -2.87439 2.98519 
1 -3.01368 -2.03781 2.98331 
1 -1.8748 -3.1163 2.02386 
1 -1.08514 -2.63906 2.64614 
2 -1.02405 -3.4451 2.26464 
2 -0.908303 -2.07176 3.43131 
1 -1.74548 -1.95079 3.09962 
1 0.503152 -3.30745 2.51332 
1 -0.176902 -2.56528 3.18219 
2 -0.265081 -2.87708 2.33047 
1 0.657795 -2.3023 2.43922 
1 -0.463537 -3.57974 2.98032 
2 0.764199 -2.32289 3.32663 
1 -3.08344 -3.60448 3.51133 
1 -2.8786 -1.11848 2.49205 
1 -2.52192 -0.58718 3.40123 
2 -3.10748 -0.310943 2.76393 
1 -3.54745 -1.20925 3.39684 
2 -2.42781 -1.42705 3.21983 
1 -1.2006 -0.155329 2.741 
1 -1.30396 -1.75513 1.96794 
1 -1.49077 -0.761242 3.59889 
1 -1.83256 -1.01915 2.55799 
1 -0.849068 -1.32213 2.91725 
1 -0.299348 -1.95409 2.24722 
1 -0.480656 -0.343253 3.58071 
1 0.203113 -1.58201 3.2053 
1 -0.00364873 -0.678964 2.62445 
2 0.507477 -1.42925 2.38298 
1 0.583646 -3.21808 3.57118 
1 -1.55363 -3.62651 2.94686 
1 -1.35697 -2.84894 3.63623 
1 -2.28388 -0.0442996 2.55255 
1 0.888444 -0.746193 3.22083 
1 1.02818 -0.74309 2.17197 
1 1.32248 -1.60768 2.77804 
1 1.46776 -2.80708 2.94313 
1 -3.50024 -2.6818 3.65491 
2 1.57644 -2.26455 2.25302 
2 -1.0089 -3.71064 3.68864 
1 1.71829 -0.237172 2.82632 
2 1.76645 -2.04882 3.42571 
2 1.79082 -3.30635 3.62408 
1 -2.94224 0.37272 3.36431 
1 -3.4157 1.26149 3.06361 
1 -3.28694 0.456171 2.34771 
2 -3.03748 1.3125 2.24996 
1 -2.30013 0.994014 2.72939 
1 -1.84435 0.297117 3.5142 
1 -1.61016 1.39145 3.7077 
2 -1.68096 0.456848 2.17498 
1 -1.24275 0.904234 2.80053 
1 -0.756909 0.69641 3.71674 
1 -0.681296 1.74089 3.34642 
1 -0.495625 1.49768 2.28595 
1 -0.278445 0.458601 2.73124 
1 0.21079 1.14231 3.40744 
1 0.495874 0.150359 3.67687 
1 0.57858 1.20827 2.42087 
1 0.696814 0.146612 2.60844 
2 0.896259 1.6501 3.16923 
1 1.27922 0.818529 3.2614 
2 1.2997 1.40332 1.85394 
1 1.51935 0.636836 2.23985 
1 1.61425 1.66821 2.64125 
2 3.77471 -1.45031 2.51327 
1 -0.177678 3.73463 1.90342 
1 1.48712 3.75887 2.1629 
1 2.02737 -1.14753 3.40584 
1 2.10332 -1.08181 2.20158 
1 3.37153 -2.1745 2.85501 
1 3.66954 -0.573361 2.22696 
1 2.55931 -0.0975598 3.48813 
1 3.62385 -0.213655 3.24608 
1 2.67623 -0.0967362 2.38886 
1 3.13034 -3.47478 2.23151 
1 2.17609 -2.94609 2.1315 
2 2.76367 -2.82939 2.76628 
1 2.27847 -3.62418 2.93837 
1 2.32215 -2.01886 2.71744 
1 2.39229 -2.66573 3.56401 
1 2.97687 -1.06302 2.8763 
1 3.13786 -1.55676 1.89031 
1 3.23999 -3.34275 3.30993 
1 3.13855 0.666403 2.94693 
2 3.20647 1.49801 3.24708 
1 3.47744 1.30726 2.18224 
2 3.70682 0.599863 3.59738 
2 2.19856 0.497447 2.88063 
1 2.31449 1.26501 3.28556 
1 2.47491 1.02642 2.21445 
1 -3.38871 2.14733 2.06951 
1 -2.62436 1.96505 2.8283 
1 -2.53691 2.77841 2.07344 
1 -2.82937 2.88418 3.23973 
1 -3.56623 3.38027 2.72413 
2 -2.22834 3.5337 3.32345 
1 -2.56078 3.72446 2.49924 
2 -3.0586 2.11126 3.60951 
1 -1.84242 2.85594 2.88205 
2 -1.80259 3.39312 2.1425 
1 -1.52391 1.90903 2.62808 
2 -1.39805 2.2762 3.42023 
1 -0.949244 3.12129 2.37185 
1 -0.747269 2.86255 3.34888 
2 -0.715335 2.29593 2.6543 
1 -0.152093 2.54174 2.00644 
2 -0.142942 3.06926 2.74919 
1 0.164456 2.2134 2.95166 
1 0.294038 3.12406 3.58169 
1 0.67341 3.11984 2.4761 
1 0.870142 2.16343 2.09432 
1 1.18424 2.49001 3.19746 
1 1.34034 3.5547 3.21185 
1 2.03266 2.83787 2.62928 
1 2.03288 2.90217 3.73426 
2 2.06214 2.14937 3.24468 
2 2.40757 2.62847 1.85224 
1 3.6882 2.25627 3.0388 
1 2.71479 1.99602 2.62495 
1 3.09403 2.92134 2.26971 
1 3.02876 3.07291 3.339 
