ITEM: TIMESTEP
533
ITEM: NUMBER OF ATOMS
500
ITEM: BOX BOUNDS xy xz yz pp pp pp
-3.7345 3.80172 0.067221
-3.7345 3.7345 0
-3.7345 3.7345 0
ITEM: ATOMS type xu yu zu 
1 -2.83227 -2.07762 -2.56074 
1 -3.06769 -3.07289 -2.90139 
1 -2.50004 -2.34782 -3.59315 
1 -2.19455 -3.3645 -3.46603 
1 -1.85907 -2.54573 -2.76648 
1 -0.925012 -2.70218 -2.21131 
2 -1.73786 -3.05328 -2.07187 
1 -0.752766 -2.33789 -3.18504 
1 0.291336 -2.24175 -3.37227 
1 -0.32106 -3.28285 -3.38716 
2 -0.170084 -2.73581 -2.66875 
1 0.622058 -3.05993 -2.77597 
1 -3.22436 -0.406528 -3.31934 
1 -3.05914 -0.995973 -2.41813 
1 -2.68518 -1.35482 -3.36938 
1 -2.32318 -0.492313 -1.87143 
1 -2.1236 -0.542483 -2.99158 
1 -2.04848 -1.42991 -2.39107 
1 -1.00295 -1.60933 -2.46504 
1 -1.62186 -1.68891 -3.36689 
2 -1.2661 -0.932961 -3.0228 
1 -1.36945 -0.651221 -2.19366 
1 -0.00100946 -1.89906 -2.39984 
1 0.359031 -0.830327 -3.35687 
2 0.598225 -1.5223 -2.91879 
1 -0.455063 -0.650125 -2.70171 
1 0.453597 -0.945761 -2.2352 
1 -0.583863 -1.35937 -3.5041 
1 -2.65061 -2.84678 -1.87791 
1 -3.43516 -2.77738 -1.15869 
1 -2.72682 -3.32146 -0.39344 
1 -2.46842 -2.35325 -0.859627 
1 -3.35986 -2.23307 -0.185625 
2 -3.56621 -3.09002 -0.341502 
1 -1.64136 -3.31637 -0.214657 
1 -1.74417 -2.2349 -1.72644 
1 -1.90994 -3.24168 -1.23116 
1 -1.37477 -2.41949 -0.742106 
1 -0.734675 -3.09245 -1.24001 
1 -0.641386 -1.99636 -1.46071 
1 0.161794 -2.75724 -1.81367 
1 0.101338 -2.56853 -0.758215 
1 -0.482905 -3.33173 -0.19296 
1 0.616959 -3.46214 -0.356722 
2 0.666956 -3.10106 -1.16988 
1 -3.19496 -1.83874 -1.57953 
1 -3.56052 -1.11701 -0.842993 
1 -3.35186 -0.204267 -1.6281 
2 -3.00078 -0.995519 -1.53568 
1 -2.63466 -0.524742 -0.885026 
1 -2.69657 -1.41494 -0.313407 
2 -3.46783 -0.232293 -0.74316 
1 -2.21889 -1.39038 -1.29607 
2 -1.42682 -1.4009 -1.73601 
1 -1.57298 -0.326835 -1.15332 
2 -1.93939 -0.952136 -0.487673 
1 -1.23374 -1.30438 -0.905696 
2 -0.809163 -0.538828 -0.766831 
1 -0.577641 -1.85223 -0.307877 
1 -0.509023 -0.920343 -1.63697 
1 0.392849 -1.6804 -1.37454 
1 -0.0674398 -0.992188 -0.687841 
2 0.368726 -0.695933 -1.39564 
2 -3.63147 -1.67226 -2.36961 
1 -1.98063 -0.116017 -0.170168 
2 -3.62517 -0.287732 -2.4957 
1 -1.28167 -3.45165 -2.91304 
1 -3.57905 -3.53396 -2.0323 
1 -2.25348 -3.67119 -2.41697 
1 -0.333419 -0.201996 -0.0733313 
1 0.521716 -1.71434 -0.22285 
1 -0.311836 -3.56167 -2.30834 
1 0.837141 -0.0651839 -2.75566 
1 0.942318 -3.56841 -1.89629 
1 -3.60862 -1.88639 -3.21158 
1 1.09765 -0.215774 -1.6962 
1 1.09993 -1.61061 -3.65537 
1 1.11145 -2.11483 -2.57181 
1 1.05085 -0.911244 -0.863543 
1 1.17404 -2.48551 -1.56363 
2 1.19842 -1.76853 -0.992823 
1 1.17641 -2.49017 -0.50744 
1 1.33982 -2.62518 -3.49323 
1 1.37533 -1.0586 -2.81111 
1 1.32589 -1.37249 -1.79918 
1 1.35676 -3.7066 -3.19045 
2 1.39059 -2.91745 -2.33265 
1 1.46793 -3.37874 -0.975041 
1 1.56776 -0.282572 -3.54325 
1 1.55589 -1.52612 -0.175104 
1 0.459284 -0.012533 -0.779383 
1 -1.22263 0.00209168 -3.0725 
1 -1.72842 -1.73287 -0.0425534 
1 1.87757 -0.191613 -2.47405 
1 -3.36789 -3.28825 1.62948 
1 -3.37355 -3.01473 0.534948 
1 -2.62344 -2.64333 1.27702 
2 -2.58488 -3.35357 0.664703 
1 -2.35041 -2.5644 0.224813 
1 -1.75816 -3.15427 0.901111 
1 -1.0797 -2.5611 0.342368 
1 -0.937383 -2.7892 1.62994 
1 -1.7346 -2.0489 1.01821 
1 -0.0214189 -2.48968 0.330589 
1 0.163794 -2.69413 1.56982 
1 -0.401564 -3.32358 0.908266 
2 0.666613 -3.48274 1.61449 
1 0.703481 -3.12992 0.731215 
1 0.536039 -1.75996 0.857084 
2 0.855389 -2.37462 0.290592 
1 -2.77547 -1.70931 0.717625 
2 -2.88337 -0.788963 0.927957 
1 -3.35245 -1.25535 1.52117 
1 -2.2523 -1.21095 1.53241 
1 -2.86573 -0.350458 1.74124 
1 -2.13951 -0.9179 0.480537 
2 -1.01319 -1.66496 0.445204 
1 -1.73332 -0.263447 1.63071 
1 -1.25956 -1.08343 1.05247 
2 -1.57764 -0.247941 0.65813 
1 -0.543711 -1.93057 1.14902 
1 -0.71937 -0.171237 0.929338 
1 -0.272539 -1.16205 0.454562 
1 0.115057 -1.15766 1.62624 
2 0.0944492 -0.553075 0.949229 
1 0.647795 -0.693562 0.125772 
1 -3.67446 -0.37157 0.951133 
1 0.126082 -0.0471905 1.69024 
1 -3.05218 -0.432081 0.0755001 
1 -3.69744 -1.267 0.241688 
1 1.15587 -1.67465 1.70548 
1 0.940602 -0.672952 1.14485 
2 1.21223 -1.26664 0.56927 
1 1.23934 -2.77634 1.61389 
1 1.55394 -2.11481 0.751104 
1 -1.18444 -0.798119 0.019488 
1 1.62899 -3.17208 0.142966 
1 1.72025 -0.52423 0.212 
1 1.85305 -0.192852 1.65082 
1 -3.51127 1.4887 -2.34493 
1 -3.33879 0.73129 -3.13065 
2 -2.72743 1.06187 -2.47288 
1 -2.80813 0.153201 -2.48371 
1 -2.09241 0.731372 -2.99978 
1 -2.56363 1.73741 -1.89311 
1 -2.90515 0.436395 -0.604645 
1 -2.97167 0.802373 -1.62357 
1 -2.57556 1.45942 -0.687765 
2 -2.35785 0.212087 -1.3302 
1 -3.49775 1.71985 -1.27653 
1 -3.5865 1.18137 -0.262841 
1 -2.65726 1.34774 -3.66133 
1 -1.95681 0.826102 -1.94415 
1 -1.91514 1.78804 -2.72186 
2 -1.8549 0.0797426 -2.41056 
1 -1.75302 0.699495 -0.876693 
1 -1.67274 1.69086 -1.30903 
1 -1.51905 1.50104 -0.170257 
1 -1.13327 1.05058 -2.75534 
2 -1.11226 1.15528 -1.76171 
1 -1.02557 0.297389 -2.00054 
1 -0.699995 1.43316 -0.965565 
1 -0.671021 0.307386 -0.991052 
1 -0.281979 1.06505 -2.11482 
1 -0.230417 1.44596 -3.13215 
2 -2.53901 0.112257 -3.38797 
1 -0.140937 0.83066 -0.196293 
1 -0.147578 0.36156 -2.91872 
1 0.217814 0.935785 -1.19875 
1 0.285073 1.7977 -0.492699 
1 0.776717 1.79117 -2.46385 
1 0.794332 0.775738 -2.08888 
1 0.864492 0.972895 -3.16779 
1 0.962796 0.913682 -0.413839 
2 1.02744 0.569928 -1.24143 
2 1.00473 0.111508 -0.0168239 
1 1.08281 1.54288 -1.38355 
2 1.47157 0.559949 -2.6029 
1 1.54621 0.0416592 -0.724326 
1 1.55399 1.72397 -3.61421 
1 0.0331541 0.014235 -1.84381 
1 1.76851 1.37216 -2.51012 
1 1.81597 0.683701 -1.65925 
2 -3.21391 0.351684 1.37844 
2 -2.57743 0.992958 0.942123 
1 -3.31467 1.2332 1.38092 
1 -2.88893 1.64437 0.407062 
1 -3.2839 0.565017 0.526377 
1 -2.42337 0.658749 1.72405 
1 -2.43104 1.75145 1.76588 
1 -2.24905 0.828669 0.157848 
1 -1.90457 1.60804 0.853229 
1 -1.56121 0.583766 1.00751 
1 -1.4949 1.25092 1.81474 
2 -1.14064 1.24917 0.602651 
1 -2.45093 0.0224896 0.852071 
1 -0.532351 1.75726 0.215655 
1 -1.13317 0.502367 0.0519793 
1 -0.43026 0.893446 0.992503 
1 0.173528 1.67953 1.45593 
1 0.31985 0.227109 0.619185 
1 0.49587 1.28739 0.500643 
1 0.770274 0.82268 1.44471 
2 1.01313 0.0363199 1.73781 
1 1.33273 0.227039 0.801539 
2 1.35834 1.11745 0.596899 
1 1.88473 0.91838 1.3094 
1 1.89648 0.673279 0.0448843 
1 1.92015 0.694258 -3.35843 
2 1.94314 1.58288 -1.65131 
1 1.94149 -1.11474 1.06773 
1 1.97024 1.41761 -0.760032 
1 2.03274 -1.87089 -3.16242 
1 2.04249 -3.29117 -1.86389 
1 2.07134 -1.56574 -1.09416 
1 2.0753 -2.21148 -2.0512 
1 2.11126 -2.9195 -2.85362 
1 2.1376 1.60551 0.559257 
1 -3.72096 -2.07606 0.959652 
2 3.67187 -1.98991 -0.916014 
1 3.14883 -2.76159 -3.14117 
2 2.79202 -2.68458 -2.29748 
2 2.51914 -3.13734 -0.0248473 
2 3.1414 -0.784461 -3.72534 
1 2.50046 -3.6453 -0.740338 
1 2.45006 -0.84968 -3.13032 
1 3.46614 -0.990775 -2.90758 
1 2.94125 -1.69416 -3.7197 
1 3.15579 -2.66244 -0.523308 
1 3.51021 -1.09202 -1.82309 
1 3.19551 -0.333486 -1.12663 
1 2.18547 -2.60762 -1.02039 
2 3.27209 -0.776433 -0.350146 
2 2.80712 -1.11241 -1.26928 
1 3.01586 -1.98571 -1.51458 
1 2.90951 -3.56344 -2.45431 
1 2.18974 -0.323011 -1.48351 
1 3.02791 -3.05466 -1.52747 
1 2.50323 -3.69374 -3.44746 
1 2.94662 -0.314851 -2.24759 
1 2.98707 -1.58905 -0.505446 
1 2.95917 -1.85971 -2.60178 
1 2.35696 -1.1788 -2.07834 
1 3.6954 -2.52273 -2.21673 
1 2.39931 -0.711405 -0.541144 
1 3.61387 -3.71606 -0.958067 
1 2.28522 -2.27355 -0.0160386 
2 3.38435 -1.18186 1.04307 
2 3.31987 -2.03357 0.155349 
1 3.31214 -3.61686 0.0237594 
1 3.22693 -3.63324 1.11975 
1 2.84934 -0.611483 1.47631 
1 2.75866 -1.73931 0.785808 
1 2.17986 -2.98156 1.06044 
1 3.10396 -2.60883 1.64144 
1 2.86635 -0.7211 0.42255 
1 2.17351 -2.01649 1.63639 
1 3.05639 -2.75239 0.552316 
2 2.35934 -1.3549 0.0966078 
2 2.54008 0.0176954 -0.0543169 
2 2.32478 1.47244 -3.27877 
1 2.99633 0.932149 -3.48401 
1 2.96164 1.61808 -2.68776 
1 3.57678 0.524141 -2.20623 
1 3.45119 0.0452465 -0.107943 
1 2.79687 1.26167 -1.64069 
2 2.83422 0.34855 -1.65703 
1 3.56371 0.652837 -1.12146 
1 2.54775 0.486295 -0.816242 
1 3.03478 1.6977 -0.656466 
1 2.54822 0.642516 -2.49111 
2 2.43117 0.0278429 -3.11741 
1 3.75783 1.66329 -3.47044 
1 3.30295 0.00123561 -3.19657 
1 3.4052 0.324664 1.65477 
2 3.71356 1.3019 0.617812 
1 2.92428 0.914832 0.130778 
1 2.96056 1.135 1.17354 
1 2.47258 0.174131 0.805887 
2 3.33516 0.387341 0.750261 
2 2.5295 0.374531 1.64524 
1 -2.92023 2.15078 -2.89496 
1 -2.64845 3.18441 -3.17728 
1 -2.49767 2.81077 -2.09481 
2 -3.24804 2.26711 -1.99519 
1 -3.05031 3.17148 -0.372874 
1 -3.50694 2.8252 -1.35386 
1 -2.55724 2.4456 -1.09583 
1 -3.49538 2.22883 -0.291733 
1 -1.99177 3.27252 -0.751891 
1 -3.48886 2.97767 -2.45786 
1 -2.16659 2.30159 -3.64934 
1 -2.21557 2.37275 -0.090104 
1 -3.59761 2.72853 -3.50841 
1 -2.77847 3.64515 -1.35611 
2 -1.99371 3.42509 -1.64083 
2 -1.43438 3.05344 -0.130836 
1 -1.59761 3.19818 -3.60083 
1 -1.52212 2.91778 -2.58302 
1 -1.51299 2.7063 -1.54918 
1 -1.18055 2.3753 -0.607214 
1 -1.04514 2.20803 -3.23641 
1 -0.923018 3.41217 -0.81764 
1 -0.960762 1.94671 -2.17415 
2 -0.769021 2.22634 -1.37313 
1 -0.571813 3.19511 -3.12839 
1 -0.49272 2.91839 -1.91378 
2 -0.244978 2.3759 -3.59833 
1 -0.141042 2.6871 -0.951631 
1 -0.0447891 2.39394 -2.70545 
1 0.0556961 1.94248 -1.65436 
2 0.0075551 3.40465 -0.436413 
1 0.155167 3.69148 -1.25934 
1 0.49003 3.34461 -2.78044 
1 0.547545 2.02101 -3.54252 
1 0.6536 2.86349 -1.76122 
2 0.653773 2.30474 -1.09293 
1 0.707135 2.85636 -0.34836 
2 0.996127 3.36475 -1.04508 
1 -1.20113 3.69952 -1.88315 
1 1.22282 2.66314 -3.05628 
2 1.26778 3.15873 -2.31551 
1 1.26402 1.86946 -0.00893976 
1 1.49455 2.41771 -0.912056 
1 1.58513 2.33219 -2.01514 
1 1.68282 3.2998 -0.322892 
1 1.77384 3.22626 -1.51752 
1 -2.40724 2.57974 0.995762 
1 -3.50489 3.13551 1.66072 
1 -3.15635 3.41027 0.687818 
2 -2.97649 2.60382 0.320762 
1 -3.45436 2.27687 1.00215 
1 -2.34826 3.62195 1.4124 
1 -2.15578 3.39369 0.303412 
2 -1.7056 3.14317 1.01026 
1 -1.55008 2.57032 1.68502 
1 -1.35966 2.48161 0.537798 
1 -1.19599 3.63121 1.51662 
1 -1.0819 3.5483 0.472681 
1 -0.84724 1.8712 1.25034 
1 -0.485917 2.92785 1.0987 
1 -0.470594 2.8193 0.025006 
1 0.274268 3.43309 0.436098 
1 0.346174 2.35086 0.585612 
1 0.592833 3.11557 1.39506 
2 1.12817 3.60892 0.295335 
1 1.20136 1.8468 1.0971 
1 1.36146 2.78578 0.561572 
1 1.50887 3.70622 1.09144 
1 1.57718 2.79632 1.64517 
1 2.09783 3.29548 -2.53878 
1 2.08143 1.85694 1.69701 
1 2.03707 2.90239 3.73484 
1 2.16632 2.26081 -2.89207 
1 2.81562 2.09973 -3.71397 
1 3.01325 2.87207 -2.89261 
2 2.30353 2.9771 -0.86075 
1 2.44303 2.25979 -1.33842 
1 2.28034 2.40176 -0.156035 
1 3.14826 2.86796 -0.59495 
1 3.30321 2.2831 -1.9642 
1 2.87786 3.23956 -1.61407 
2 2.48547 2.612 -2.14494 
2 3.63628 2.21962 -2.79521 
1 3.68612 3.72624 -3.21863 
1 3.14929 1.92458 0.406675 
1 2.42052 3.49653 1.6415 
2 3.12611 2.99569 1.35948 
1 3.35336 2.93433 0.501469 
1 2.39286 2.61432 0.944917 
1 2.42742 3.56474 0.444709 
1 3.1176 2.12399 1.55735 
1 -0.854047 0.394979 1.84938 
2 -0.0439234 0.837855 1.85488 
1 -0.81391 -0.739634 1.94249 
1 -3.38283 -2.20827 1.97959 
2 -2.72922 -2.88618 2.1435 
1 -3.42926 -3.02654 2.65446 
1 -2.30505 -2.09302 2.16148 
1 -2.32754 -2.8761 2.98361 
1 -3.01574 -2.04507 2.96879 
1 -1.877 -3.11909 2.02267 
1 -1.09423 -2.63726 2.64542 
2 -1.0259 -3.44469 2.26444 
2 -0.931844 -2.05945 3.44303 
1 -1.75863 -1.94507 3.08858 
1 0.50295 -3.30785 2.50618 
1 -0.197007 -2.55479 3.19509 
2 -0.268102 -2.87495 2.33978 
1 0.657021 -2.30222 2.44342 
1 -0.463187 -3.57478 2.97973 
2 0.773647 -2.31509 3.32761 
1 -3.08815 -3.60027 3.50953 
1 -2.8707 -1.1202 2.49101 
1 -2.51595 -0.58903 3.4007 
2 -3.10139 -0.312523 2.76051 
1 -3.53305 -1.21456 3.39831 
2 -2.4467 -1.43372 3.23172 
1 -1.19455 -0.151997 2.74464 
1 -1.30316 -1.75436 1.96569 
1 -1.48447 -0.759866 3.60115 
1 -1.82512 -1.01212 2.55265 
1 -0.847397 -1.3238 2.91894 
1 -0.299616 -1.95459 2.24781 
1 -0.47389 -0.343537 3.5824 
1 0.210348 -1.58116 3.20456 
1 -0.000150757 -0.679252 2.6247 
2 0.510846 -1.42922 2.38122 
1 0.581461 -3.2048 3.5617 
1 -1.55319 -3.62431 2.9491 
1 -1.36741 -2.84012 3.63758 
1 -2.27875 -0.04136 2.55391 
1 0.893076 -0.74538 3.22003 
1 1.03308 -0.744159 2.17186 
1 1.32563 -1.60872 2.77898 
1 1.47069 -2.8069 2.94243 
1 -3.50959 -2.67639 3.64469 
2 1.57756 -2.26523 2.25211 
2 -1.00951 -3.70645 3.68947 
1 1.72401 -0.238605 2.82641 
2 1.77097 -2.05036 3.42597 
2 1.79262 -3.30711 3.62354 
1 -2.93829 0.370149 3.361 
1 -3.41147 1.2585 3.06572 
1 -3.28195 0.456106 2.34598 
2 -3.03435 1.31347 2.25176 
1 -2.29571 0.996496 2.72943 
1 -1.84216 0.298132 3.51876 
1 -1.60279 1.3922 3.71086 
2 -1.67526 0.458407 2.17634 
1 -1.23832 0.906334 2.80274 
1 -0.749814 0.697059 3.71762 
1 -0.675201 1.74235 3.34731 
1 -0.490504 1.49876 2.28706 
1 -0.272946 0.460814 2.73181 
1 0.216771 1.14345 3.40829 
1 0.501682 0.150882 3.67729 
1 0.583863 1.20785 2.42139 
1 0.701499 0.145955 2.60827 
2 0.901343 1.65138 3.16906 
1 1.28362 0.81884 3.26204 
2 1.30488 1.40277 1.85506 
1 1.52478 0.63624 2.24119 
1 1.61984 1.6683 2.64216 
2 3.78297 -1.45352 2.50975 
1 1.49545 3.75624 2.16376 
1 2.03736 -1.15135 3.40417 
1 2.10938 -1.08358 2.2032 
1 3.37053 -2.17621 2.84277 
1 3.67513 -0.575733 2.22487 
1 2.56607 -0.101915 3.48822 
1 3.63047 -0.2199 3.24475 
1 2.68263 -0.100753 2.38943 
1 3.12923 -3.47875 2.22935 
1 2.17669 -2.94816 2.13033 
2 2.76445 -2.83397 2.7658 
1 2.27685 -3.62652 2.93779 
1 2.32265 -2.02278 2.7167 
1 2.39659 -2.66815 3.56452 
1 2.98745 -1.06972 2.87595 
1 3.14289 -1.5583 1.88698 
1 3.23967 -3.34986 3.30874 
1 3.14445 0.662752 2.94762 
2 3.21116 1.49537 3.24761 
1 3.48264 1.30652 2.18394 
2 3.71078 0.592374 3.59906 
2 2.20634 0.494448 2.88109 
1 2.3193 1.2626 3.28602 
1 2.48078 1.0245 2.2153 
1 -0.173118 3.73309 1.90198 
1 -3.38493 2.14779 2.06971 
1 -2.62249 1.96676 2.83011 
1 -2.53155 2.7775 2.07261 
1 -2.82278 2.88624 3.24419 
1 -3.56056 3.37555 2.7245 
2 -2.22399 3.53897 3.32164 
1 -2.55625 3.72337 2.4974 
2 -3.05151 2.11232 3.61382 
1 -1.83792 2.85862 2.88236 
2 -1.79738 3.39263 2.14093 
1 -1.51998 1.91094 2.62934 
2 -1.39146 2.27874 3.4209 
1 -0.944657 3.12244 2.37234 
1 -0.741549 2.86598 3.3499 
2 -0.710617 2.29764 2.6558 
1 -0.147769 2.54187 2.00705 
2 -0.138189 3.07252 2.74859 
1 0.169433 2.21654 2.95295 
1 0.29899 3.12899 3.58174 
1 0.678841 3.11968 2.47637 
1 0.875189 2.16313 2.09551 
1 1.18978 2.49103 3.19809 
1 1.34363 3.5572 3.21288 
1 2.03841 2.83604 2.62922 
2 2.06797 2.14881 3.24571 
2 2.41299 2.62729 1.85138 
1 3.69477 2.25362 3.04028 
1 2.72059 1.99428 2.62638 
1 3.0998 2.91839 2.2686 
1 3.03174 3.06819 3.33718 
