ITEM: TIMESTEP
400
ITEM: NUMBER OF ATOMS
500
ITEM: BOX BOUNDS xy xz yz pp pp pp
-3.7345 3.77185 0.037345
-3.7345 3.7345 0
-3.7345 3.7345 0
ITEM: ATOMS type xu yu zu 
1 0.653032 -2.30279 2.43896 
1 -2.70952 -1.41339 -0.308519 
1 2.01493 -1.86641 -3.15895 
1 -0.348094 -0.202637 -0.0764802 
1 1.18515 -2.48498 -0.502386 
1 -1.55359 -3.62779 2.94611 
1 2.07317 3.29271 -2.53785 
1 -1.21232 -0.156307 2.73995 
1 2.17096 -0.329788 -1.48209 
1 -3.38814 -2.20048 1.99356 
1 1.17945 1.84751 1.09575 
1 -1.74099 -2.05202 1.0233 
1 -1.2454 -0.000418786 -3.07601 
1 2.01479 2.90207 3.73369 
1 -2.14042 -0.5616 -2.99068 
1 0.942835 0.915818 -0.415251 
1 1.01785 -0.742853 2.17179 
1 -1.25633 0.903433 2.79933 
1 -3.37007 -2.23259 -0.183189 
1 -2.78392 -1.71063 0.720772 
1 -3.53353 1.489 -2.34393 
1 -2.23261 -1.39107 -1.28914 
1 2.05915 1.85897 1.69589 
1 -2.43167 2.57714 0.997691 
1 -2.48869 -2.35556 -3.58625 
1 1.46884 -3.37589 -0.975419 
1 -1.74372 -1.95212 3.10427 
1 -0.721907 1.4297 -0.969922 
1 0.84342 0.973284 -3.1689 
1 -2.82558 0.148925 -2.48833 
1 3.05388 -2.75431 0.551417 
1 -2.62648 -2.64141 1.28592 
1 -1.19944 -0.796019 0.020862 
1 3.61127 -0.210125 3.24555 
1 3.28275 0.0026827 -3.19388 
1 -2.26899 0.82701 0.154989 
1 -2.92531 0.435354 -0.607597 
1 -1.84169 -1.02174 2.5579 
1 -2.29536 -0.0457613 2.55145 
1 2.79426 2.10451 -3.71578 
1 3.01055 -1.98951 -1.52163 
1 -0.463354 -3.58199 2.98028 
1 -0.0172548 -1.89875 -2.39961 
1 0.503334 -3.30814 2.51514 
1 0.816515 -0.0645857 -2.75543 
1 3.09592 2.1279 1.55918 
1 2.38601 -0.720248 -0.541331 
1 -2.44787 1.75164 1.76525 
1 2.83547 -0.610263 1.47806 
1 0.636755 -0.68833 0.124899 
1 -1.15687 1.04726 -2.75705 
1 -1.53641 2.70567 -1.54639 
1 -3.07381 -1.00046 -2.42616 
1 -0.733674 -0.172479 0.92708 
1 2.43086 -0.844225 -3.13135 
1 -1.86076 2.85392 2.88322 
1 0.944456 -3.56782 -1.89683 
1 2.17321 -2.94446 2.13302 
1 0.853288 2.16349 2.09471 
1 -0.855967 -1.32139 2.91628 
1 -0.496107 2.82127 0.0259693 
1 0.147228 2.21217 2.95112 
1 1.79922 0.681296 -1.6593 
1 -3.40327 2.14542 2.06802 
1 0.583136 -3.22258 3.57405 
1 -3.08096 -3.60755 3.51289 
1 -1.69468 1.68847 -1.31095 
1 -3.36816 -3.28771 1.64146 
1 -0.173485 -2.56945 3.17828 
1 -0.578257 -1.85592 -0.305407 
1 -3.51049 2.97844 -2.46047 
1 -0.697905 1.74018 3.34625 
1 1.14752 -1.67277 1.70482 
1 1.3546 -1.05542 -2.81603 
1 0.6194 -3.46212 -0.358127 
1 1.3594 -3.70645 -3.18629 
1 -1.57369 2.56818 1.68523 
1 2.50192 -3.69031 -3.44796 
1 1.56289 2.33288 -2.01526 
1 -3.05853 -3.09217 -2.89299 
1 -0.01352 -0.679159 2.62446 
1 -1.27815 -3.45258 -2.90656 
1 1.90058 0.699232 -3.3585 
1 -1.06993 2.20893 -3.23783 
1 3.28235 2.28394 -1.96438 
1 -2.88214 -0.350493 1.73915 
1 -0.510211 1.49717 2.28594 
1 2.50294 -3.64727 -0.742024 
1 1.31316 0.226553 0.805302 
1 -3.24444 -0.406933 -3.32121 
1 -0.492974 -0.343062 3.58046 
1 -3.01597 -2.03434 2.99138 
1 2.16304 -2.01401 1.63775 
1 -1.11092 3.54776 0.474885 
1 0.684492 0.146378 2.60795 
1 -2.32553 -2.87357 2.98614 
1 2.66505 -0.0950336 2.38855 
1 -0.554584 1.75872 0.213983 
1 -1.91043 -3.24051 -1.22489 
1 -2.11587 0.727266 -3.00787 
1 3.09749 -2.60515 1.64159 
1 0.522875 -1.71093 -0.223573 
1 -3.55977 -1.20571 3.39444 
1 1.26511 0.818473 3.26104 
1 -3.52053 2.22798 -0.287611 
1 2.94171 1.13703 1.17313 
1 0.750425 0.824234 1.44388 
1 -0.023764 -2.48901 0.335313 
1 0.193968 -1.58256 3.2059 
1 2.14275 2.26086 -2.8934 
1 2.97482 0.932515 -3.48401 
1 3.68723 -2.52892 -2.22443 
1 2.0934 -1.08108 2.20095 
1 0.77577 0.777877 -2.09032 
1 -1.53832 1.49582 -0.174381 
1 3.65938 -0.572962 2.22703 
1 -2.58442 1.73686 -1.89603 
1 0.275832 -2.24785 -3.37197 
1 -2.80283 3.64873 -1.35673 
1 1.54836 -0.275626 -3.54339 
1 -2.53345 -0.585989 3.40089 
1 2.94525 -1.86472 -2.60545 
1 2.28167 -2.27561 -0.0176562 
1 2.2786 -3.62256 2.93975 
1 1.53184 1.72454 -3.61492 
1 2.18792 -2.60966 -1.02295 
1 1.74695 1.37213 -2.50906 
1 -2.18404 3.39 0.305289 
1 -1.15183 0.49769 0.0509083 
1 2.96526 -1.05995 2.87608 
1 2.69812 1.99708 2.62424 
1 -0.282997 -1.15868 0.453017 
1 -1.64358 -3.3174 -0.208578 
1 -0.168035 0.362972 -2.92147 
1 -0.968932 3.12016 2.37148 
1 -1.0848 -2.63989 2.6458 
1 0.108164 -2.567 -0.755418 
1 -1.76956 0.693451 -0.883254 
1 1.93273 -1.11208 1.06253 
1 -0.867722 1.87177 1.24929 
1 -2.58126 3.72449 2.50078 
1 2.2572 2.40331 -0.15547 
1 0.443578 -0.0110817 -0.78055 
1 -2.4729 -2.3529 -0.853317 
1 -2.24458 -3.67045 -2.41152 
1 -3.52968 3.13319 1.66049 
1 2.1061 -2.91734 -2.85555 
1 2.11455 1.60542 0.556931 
1 1.48097 3.7078 1.09169 
1 -2.90841 1.64332 0.406043 
1 1.63162 -3.17444 0.142891 
1 -3.47821 2.27532 0.998751 
1 2.54695 -0.0956108 3.48792 
1 -0.825345 -0.739397 1.9388 
1 2.98081 -1.59447 -0.514533 
1 0.124273 3.69106 -1.2619 
1 -3.06944 -0.430733 0.0749268 
1 -1.86009 -2.5458 -2.7537 
1 -0.766972 2.86088 3.34861 
1 3.23209 -3.63144 1.12208 
1 2.92908 -0.314491 -2.24411 
1 -0.303759 1.06548 -2.11676 
1 -2.88822 -1.11808 2.49199 
1 -3.61863 2.72867 -3.50945 
1 2.34511 -1.18073 -2.08414 
1 3.67064 2.25798 3.03681 
1 1.46367 -2.80681 2.94437 
1 2.85216 3.23938 -1.61634 
1 3.23912 -3.33722 3.31122 
1 -2.57995 2.4433 -1.0965 
1 3.12452 2.86625 -0.597492 
1 -0.170317 2.54121 2.00616 
1 3.49996 -1.09247 -1.82565 
1 2.01375 2.83847 2.62895 
1 -0.533127 -0.91213 -1.63021 
1 -2.3783 3.6217 1.41529 
1 -2.18532 -3.36904 -3.46584 
1 1.24081 1.87113 -0.00967419 
1 -3.43066 1.26293 3.06233 
1 1.47213 2.41689 -0.912243 
1 0.152579 1.67999 1.45516 
1 -2.64396 -2.83779 -1.87912 
1 0.436708 -0.946788 -2.23468 
1 -3.07453 3.1682 -0.374816 
1 2.99009 2.87202 -2.89352 
1 1.16801 -2.48146 -1.55859 
1 -2.23583 2.36921 -0.0907003 
1 -2.95503 0.374106 3.36558 
1 2.52947 0.643366 -2.49085 
1 2.45566 0.173434 0.805442 
1 2.06389 -2.21215 -2.05317 
1 -3.36793 -0.204574 -1.62829 
1 1.31991 3.55375 3.21343 
1 0.0331707 1.94284 -1.65531 
1 -2.55433 2.77823 2.07439 
1 -0.30429 -1.95429 2.24719 
1 -1.22442 3.63148 1.51827 
1 -1.54011 1.90792 2.62665 
1 0.105181 -1.15715 1.62742 
1 -2.31375 0.992766 2.72909 
1 0.110537 -0.0467776 1.68977 
1 -0.480176 -3.3314 -0.188682 
1 -0.550883 -1.92623 1.1492 
1 -0.733262 -3.08782 -1.23091 
1 0.197553 0.935254 -1.20092 
1 -3.57171 -1.12037 -0.845304 
1 3.12939 -1.55658 1.89222 
1 -3.69087 -0.370081 0.950665 
1 -1.22437 3.70191 -1.8742 
1 0.929481 -0.677009 1.14423 
1 3.01132 3.07638 3.34038 
1 -2.59476 1.45668 -0.689884 
1 -0.985468 1.94574 -2.17586 
1 -3.51763 1.7212 -1.27576 
1 1.0795 -0.213264 -1.69713 
1 0.629415 2.86418 -1.76115 
1 2.85261 -0.72217 0.423795 
1 2.77733 1.26159 -1.64034 
1 -2.51904 2.81093 -2.09494 
1 -1.7418 -1.73327 -0.0341312 
1 -1.38347 2.48274 0.540696 
1 3.73471 1.6637 -3.47236 
1 -2.639 1.96375 2.82804 
1 -2.15403 -0.915232 0.484132 
1 -2.3586 -2.56701 0.230904 
1 0.464269 3.34272 -2.77968 
1 1.19935 2.66446 -3.05901 
1 1.31509 -1.60698 2.7779 
1 0.483179 0.150082 3.67617 
1 -0.922172 -2.7016 -2.20416 
1 2.29936 1.26629 3.28556 
1 3.46275 1.30672 2.18048 
1 2.39356 3.50042 1.64263 
1 -0.0770748 -0.99453 -0.687553 
1 -0.470973 -0.647099 -2.69854 
1 -2.44178 0.658627 1.72359 
1 1.74675 3.22776 -1.51628 
1 -1.53893 2.92083 -2.57885 
1 0.340332 -0.830384 -3.35782 
1 2.01603 -1.14468 3.40604 
1 -0.398317 -3.32771 0.9104 
1 1.83818 -0.191429 1.65032 
1 0.682548 2.857 -0.350043 
1 0.322339 2.35226 0.585912 
1 -2.7082 -1.36241 -3.38899 
1 3.14143 -2.76264 -3.14655 
1 3.36875 -2.17385 2.86369 
1 2.368 2.61453 0.945849 
1 -3.29917 0.455752 2.34793 
1 1.65769 3.30047 -0.32468 
1 -3.33168 1.23342 1.3796 
1 -2.26589 -1.21421 1.53648 
1 -1.62715 1.39121 3.70554 
1 -1.93898 1.78392 -2.72743 
1 3.55767 0.523201 -2.20488 
1 1.94901 1.41534 -0.759698 
1 -0.329675 -3.27171 -3.39191 
1 2.9164 -1.68388 -3.72047 
1 -2.68164 1.34949 -3.65963 
1 -0.593356 3.19799 -3.13305 
1 0.301592 0.229164 0.6172 
1 -1.50233 -0.763106 3.59702 
1 1.09501 -2.11153 -2.56802 
1 -3.58693 3.38386 2.72355 
1 -3.36213 0.732829 -3.12743 
1 2.42086 2.2588 -1.33933 
1 -1.3902 -0.650334 -2.19891 
1 1.16646 2.48954 3.19707 
1 1.55274 2.79835 1.64501 
1 3.389 0.326572 1.65398 
1 1.23817 -2.77406 1.6126 
1 0.195449 1.14197 3.40759 
1 -2.4693 0.0243978 0.85094 
1 3.15438 -2.66614 -0.524418 
1 -3.60688 1.18081 -0.264307 
1 -1.35392 -2.85223 3.63544 
1 -1.30932 -1.75622 1.96837 
1 -3.30348 0.565991 0.52499 
1 0.262305 1.79749 -0.494675 
1 -2.85075 -2.0834 -2.57758 
1 1.50554 0.63726 2.23915 
1 -1.64472 -1.67738 -3.34901 
1 -0.771959 0.696361 3.71619 
1 0.473776 1.28899 0.49902 
1 -0.070812 2.39341 -2.70702 
1 -1.76137 -3.15564 0.9039 
1 -1.0197 -1.60649 -2.45481 
1 1.54892 -2.11005 0.74747 
1 3.54439 0.651347 -1.12204 
1 2.46022 1.02759 2.21421 
1 3.07359 2.92442 2.27024 
1 2.38736 -2.66301 3.5644 
1 3.17905 -0.336314 -1.12686 
1 3.02868 -3.05853 -1.52759 
1 1.33059 -2.62403 -3.49138 
1 -0.198942 3.73495 1.90369 
1 0.705512 -3.12949 0.729034 
1 -3.18444 3.40858 0.686512 
1 -2.65225 -0.526081 -0.885561 
1 -2.19289 2.30094 -3.65287 
1 -1.87515 -3.11552 2.02434 
1 -3.58068 -3.53736 -2.02732 
1 3.65505 3.72622 -3.22251 
1 2.93975 1.61986 -2.68829 
1 0.386031 -1.67816 -1.37658 
1 1.31566 -1.3649 -1.80091 
1 -0.44995 0.893808 0.99172 
1 0.274425 3.122 3.58171 
1 -0.16237 0.831342 -0.198386 
1 2.74994 -1.74372 0.790603 
1 -3.52814 2.82738 -1.35632 
1 -0.94927 3.41278 -0.813348 
1 0.524719 2.0198 -3.54292 
1 -3.36761 -1.25386 1.52148 
1 0.754578 1.79346 -2.46542 
1 1.46526 3.75867 2.16376 
1 -1.99891 -0.117378 -0.172247 
1 3.12515 1.92405 0.407135 
1 2.4005 3.56623 0.44827 
1 -2.99178 0.802076 -1.62698 
1 0.249725 3.43277 0.435202 
1 0.529721 -1.75336 0.855017 
1 -0.602781 -1.35705 -3.50469 
1 -0.644206 -1.99413 -1.4527 
1 -1.62053 3.19254 -3.59858 
1 1.06163 1.54338 -1.3842 
1 3.01299 1.69792 -0.656169 
1 1.08203 -1.6144 -3.65742 
1 -2.84986 2.88282 3.23636 
1 1.59821 1.66827 2.64111 
1 0.563868 1.20783 2.42099 
1 -1.24629 -1.3135 -0.896379 
1 -0.510147 2.93089 1.09998 
1 -2.30985 -2.08877 2.17906 
1 1.87542 0.671323 0.046533 
1 -1.04485 0.295566 -2.00175 
1 1.70689 -0.2363 2.8256 
1 -1.92413 1.60646 0.850595 
1 3.12985 -3.47114 2.23352 
1 0.878393 -0.746378 3.22075 
1 -1.20231 2.373 -0.606379 
1 -0.255277 1.44633 -3.13435 
1 -3.375 -3.01521 0.539338 
1 3.12418 0.668829 2.94708 
1 1.85916 -0.191137 -2.47277 
1 -2.72698 -3.32402 -0.390641 
1 1.03835 -0.908059 -0.864282 
1 -0.93661 -2.78946 1.62796 
1 -1.73711 -2.23134 -1.71356 
1 -2.07036 -1.43929 -2.37396 
1 2.91037 -3.56201 -2.45653 
1 -2.66842 3.18228 -3.17676 
1 3.43081 0.0439303 -0.108907 
1 -3.20258 -1.84132 -1.58979 
1 0.65354 3.1193 2.47711 
1 3.31394 -3.61802 0.0245902 
1 2.90377 0.914443 0.130418 
1 1.55792 -1.51723 -0.178926 
1 3.3253 2.93412 0.503022 
1 -1.57949 0.583175 1.00598 
1 -1.27288 -1.08545 1.05168 
1 -1.97811 0.823311 -1.95104 
1 -3.70991 -1.26785 0.243525 
1 1.5293 0.0447626 -0.726946 
1 0.158879 -2.75572 -1.81376 
1 -0.517587 2.91828 -1.91467 
1 2.31774 -2.01624 2.71815 
1 -1.58866 -0.338256 -1.15359 
1 -0.68827 0.301147 -0.993061 
1 2.04242 -3.29076 -1.86676 
1 2.06245 -1.57134 -1.10181 
1 0.163939 -2.68613 1.56143 
1 3.61783 -3.7171 -0.956043 
1 -2.94329 2.14987 -2.89537 
1 -1.51288 1.24891 1.81237 
1 3.44517 -0.988951 -2.90587 
1 1.86642 0.919481 1.30805 
1 0.0159225 0.0152374 -1.84652 
1 -1.74907 -0.265739 1.62783 
1 -3.4234 -3.0194 2.66609 
1 -0.871429 0.393168 1.84739 
1 -0.291393 0.457878 2.73092 
1 -1.3786 -2.42118 -0.729514 
1 -0.769512 -2.33073 -3.1775 
1 -3.72764 -2.07734 0.962775 
1 2.1773 -2.97665 1.06159 
1 1.70964 -0.514313 0.209966 
1 0.56787 3.11953 1.39588 
1 -0.166575 2.68665 -0.951558 
1 2.52958 0.483432 -0.814718 
1 -3.49529 -2.68531 3.66257 
1 0.6189 -3.0609 -2.77373 
1 -1.08177 -2.56136 0.348807 
1 -0.309887 -3.561 -2.31271 
1 -1.85613 0.296167 3.51238 
1 -2.34203 -0.494887 -1.87199 
1 -3.4334 -2.77926 -1.16029 
1 1.33736 2.78709 0.560919 
1 -3.63272 -1.88025 -3.22159 
1 -2.01818 3.27142 -0.749778 
2 2.4641 2.60874 -2.14676 
2 3.69651 1.30602 0.616636 
2 1.28445 1.40378 1.85364 
2 -1.87951 0.0756125 -2.41844 
2 2.79522 -1.11544 -1.27497 
2 0.967429 3.36811 -1.0462 
2 1.33575 1.11607 0.597457 
2 0.0833271 -0.551938 0.950035 
2 1.20405 -1.26225 0.561647 
2 -1.69338 0.455827 2.17365 
2 -1.46016 3.05093 -0.129665 
2 2.51718 0.0116753 -0.0546732 
2 -2.99618 2.60327 0.319906 
2 -1.02351 -3.44579 2.2647 
2 -1.41636 2.27349 3.41977 
2 -3.26906 2.26786 -1.99641 
2 -3.48577 -0.234785 -0.742968 
2 -3.23089 0.351887 1.37682 
2 3.19102 1.49983 3.2472 
2 -1.73306 -3.05136 -2.06126 
2 -0.732727 2.29485 2.65393 
2 3.30686 -2.03197 0.155019 
2 -2.59519 0.990964 0.940347 
2 -3.05079 1.31173 2.24946 
2 3.31707 0.388925 0.749857 
2 1.38823 -2.90963 -2.329 
2 1.24238 3.15936 -2.31661 
2 3.61442 2.21975 -2.79605 
2 1.18915 -1.76434 -0.991253 
2 -1.27339 -0.927165 -3.0264 
2 2.51977 -3.13897 -0.0274853 
2 -1.82331 3.39206 2.14364 
2 1.10229 3.60881 0.293873 
2 1.00949 0.573427 -1.24302 
2 2.76027 -2.82632 2.76746 
2 0.88026 1.64961 3.16935 
2 3.37007 -1.18049 1.04409 
2 3.12369 -0.776799 -3.72456 
2 -0.174631 -2.73371 -2.67341 
2 -1.16004 1.24739 0.599627 
2 0.579673 -1.52386 -2.92166 
2 2.78312 -2.68673 -2.29508 
2 -1.59258 -0.245383 0.655525 
2 0.352877 -0.693948 -1.39609 
2 -1.02008 -1.66412 0.443305 
2 -0.792518 2.22447 -1.37433 
2 -2.90058 -0.78903 0.926449 
2 -1.73401 3.14297 1.01327 
2 2.27853 2.97541 -0.861922 
2 -0.903003 -2.07576 3.42791 
2 -1.00778 -3.71206 3.68825 
2 2.41008 0.032016 -3.11818 
2 2.30502 1.4762 -3.28156 
2 0.630724 2.3055 -1.09343 
2 -0.0189512 3.40549 -0.437374 
2 -1.13531 1.1535 -1.76578 
2 1.78858 -3.30469 3.62536 
2 -3.07699 2.11044 3.60723 
2 -0.264808 -2.87778 2.32741 
2 -2.42421 -1.42305 3.21391 
2 3.66793 -1.99457 -0.921684 
2 -2.24834 3.53037 3.32519 
2 -0.268951 2.37217 -3.59945 
2 0.665575 -3.10379 -1.17243 
2 -2.54435 0.0931203 -3.39575 
2 1.92199 1.58178 -1.65093 
2 -0.822503 -0.545769 -0.768061 
2 3.69339 0.603552 3.59711 
2 1.45163 0.559503 -2.60517 
2 -2.74821 1.06059 -2.47655 
2 -2.72744 -2.88479 2.14964 
2 3.76514 -1.4493 2.51426 
2 0.850157 -2.37195 0.29073 
2 -3.64787 -1.67572 -2.37535 
2 2.18535 0.498681 2.88032 
2 -2.01719 3.42466 -1.63659 
2 -0.0630154 0.837365 1.8539 
2 -3.11918 -0.310819 2.76507 
2 0.992637 0.116485 -0.0162764 
2 0.662985 -3.47743 1.61895 
2 3.09951 2.99899 1.36085 
2 -1.4421 -1.38789 -1.72728 
2 -2.37963 0.210112 -1.33306 
2 -1.95347 -0.953671 -0.486784 
2 -3.01579 -0.997013 -1.54058 
2 -0.162691 3.0678 2.74942 
2 0.499187 -1.42982 2.38371 
2 2.04524 2.14974 3.24427 
2 2.38884 2.62966 1.85205 
2 2.36323 -1.36478 0.0941319 
2 -2.58657 -3.35684 0.666748 
2 0.757508 -2.32499 3.32704 
2 1.75969 -2.04744 3.42573 
2 3.25948 -0.780875 -0.349703 
2 -3.64235 -0.289597 -2.49455 
2 2.51316 0.378316 1.6435 
2 1.57119 -2.26398 2.25467 
2 2.81289 0.348319 -1.65579 
2 0.997217 0.0368639 1.73466 
2 -3.5656 -3.08994 -0.340606 
