ITEM: TIMESTEP
461
ITEM: NUMBER OF ATOMS
500
ITEM: BOX BOUNDS xy xz yz pp pp pp
-3.7345 3.78678 0.052283
-3.7345 3.7345 0
-3.7345 3.7345 0
ITEM: ATOMS type xu yu zu 
1 0.656363 -2.3023 2.43922 
1 -2.70297 -1.41427 -0.309836 
1 2.02249 -1.869 -3.16064 
1 -0.340584 -0.202547 -0.0749429 
1 1.18197 -2.48748 -0.504485 
1 -1.55374 -3.62651 2.94686 
1 2.08571 3.29463 -2.53855 
1 -1.20418 -0.155329 2.741 
1 2.18035 -0.325904 -1.48265 
1 -3.38482 -2.20253 1.98854 
1 1.18999 1.84707 1.09602 
1 -1.73737 -2.05069 1.02197 
1 -1.23555 0.000152982 -3.07473 
1 2.02625 2.90217 3.73426 
1 -2.13212 -0.556187 -2.99027 
1 0.952695 0.914611 -0.414738 
1 1.02519 -0.74309 2.17197 
1 -1.24739 0.904234 2.80053 
1 -3.36506 -2.23243 -0.184961 
1 -2.77962 -1.70942 0.720185 
1 -3.52238 1.48892 -2.34444 
1 -2.22582 -1.39125 -1.29095 
1 2.07007 1.85847 1.69601 
1 -2.41922 2.57941 0.996849 
1 -2.49319 -2.3529 -3.58852 
1 1.4688 -3.37721 -0.975558 
1 -1.74726 -1.95079 3.09962 
1 -0.7112 1.43093 -0.96897 
1 0.853883 0.972952 -3.16869 
1 -2.81687 0.150207 -2.48675 
1 3.05626 -2.75266 0.551942 
1 -2.62449 -2.64139 1.28258 
1 -1.19207 -0.796409 0.0208691 
1 3.62033 -0.213655 3.24608 
1 3.29177 0.00234376 -3.19466 
1 -2.25908 0.828124 0.156397 
1 -2.91535 0.435696 -0.606042 
1 -1.83528 -1.01915 2.55799 
1 -2.28757 -0.0442996 2.55255 
1 2.80484 2.10247 -3.71517 
1 3.0126 -1.98778 -1.5186 
1 -0.463692 -3.57974 2.98032 
1 -0.0101995 -1.89885 -2.39995 
1 0.502725 -3.30745 2.51332 
1 0.825937 -0.0649453 -2.75516 
1 3.10669 2.12613 1.55817 
1 2.39238 -0.716187 -0.541374 
1 -2.44076 1.75206 1.764 
1 2.84222 -0.610054 1.47739 
1 0.642782 -0.69129 0.125299 
1 -1.14568 1.04785 -2.75647 
1 -1.52443 2.70572 -1.54816 
1 -3.0669 -0.998651 -2.42264 
1 -0.726929 -0.172054 0.928097 
1 2.43957 -0.847241 -3.13051 
1 -1.84901 2.85594 2.88205 
1 0.943882 -3.56863 -1.89678 
1 2.1753 -2.94609 2.1315 
1 0.864244 2.16343 2.09432 
1 -0.85148 -1.32213 2.91725 
1 -0.483807 2.82027 0.0248407 
1 0.158508 2.2134 2.95166 
1 1.80748 0.682833 -1.65904 
1 -3.39459 2.14733 2.06951 
1 0.58313 -3.21808 3.57118 
1 -3.08357 -3.60448 3.51133 
1 -1.68398 1.68929 -1.31064 
1 -3.36843 -3.28637 1.6355 
1 -0.178071 -2.56528 3.18219 
1 -0.577205 -1.85459 -0.306246 
1 -3.49966 2.97846 -2.45933 
1 -0.686771 1.74089 3.34642 
1 1.15294 -1.67265 1.70459 
1 1.36356 -1.05705 -2.81457 
1 0.618575 -3.46268 -0.357997 
1 1.35784 -3.70749 -3.18919 
1 -1.56208 2.56979 1.68581 
1 2.50279 -3.69201 -3.44787 
1 1.57427 2.33258 -2.0155 
1 -3.06187 -3.08432 -2.89672 
1 -0.00670427 -0.678964 2.62445 
1 -1.27978 -3.45286 -2.90881 
1 1.91095 0.69738 -3.3589 
1 -1.05784 2.20845 -3.23733 
1 3.29303 2.28406 -1.96449 
1 -2.87482 -0.350058 1.7403 
1 -0.500857 1.49768 2.28595 
1 2.50209 -3.64595 -0.740346 
1 1.32278 0.228208 0.802198 
1 -3.235 -0.406004 -3.32016 
1 -0.484047 -0.343253 3.58071 
1 -3.01538 -2.03781 2.98331 
1 2.169 -2.01524 1.63704 
1 -1.09555 3.54845 0.474565 
1 0.692933 0.146612 2.60844 
1 -2.32652 -2.87439 2.98519 
1 2.6726 -0.0967362 2.38886 
1 -0.5438 1.75817 0.215355 
1 -1.90983 -3.24124 -1.22717 
1 -2.105 0.728252 -3.00503 
1 3.10165 -2.60647 1.64225 
1 0.522639 -1.71329 -0.222817 
1 -3.54997 -1.20925 3.39684 
1 1.27467 0.818529 3.2614 
1 -3.50745 2.22857 -0.290152 
1 2.95082 1.13662 1.17312 
1 0.75993 0.823557 1.44423 
1 -0.0218206 -2.48977 0.333404 
1 0.20096 -1.58201 3.2053 
1 2.15495 2.26106 -2.89259 
1 2.9859 0.933038 -3.48426 
1 3.69086 -2.52609 -2.22137 
1 2.10067 -1.08181 2.20158 
1 0.785344 0.776917 -2.08966 
1 -1.52833 1.49783 -0.173086 
1 3.66637 -0.573361 2.22696 
1 -2.57424 1.73666 -1.89482 
1 0.281823 -2.24607 -3.37234 
1 -2.79007 3.64746 -1.35554 
1 1.5573 -0.277857 -3.54303 
1 -2.52506 -0.58718 3.40123 
1 2.95126 -1.86196 -2.60383 
1 2.28375 -2.27458 -0.0172692 
1 2.27836 -3.62418 2.93837 
1 1.54309 1.72432 -3.61446 
1 2.187 -2.60868 -1.02204 
1 1.75792 1.37214 -2.50982 
1 -2.16869 3.39133 0.304408 
1 -1.14306 0.499001 0.0515085 
1 2.97419 -1.06302 2.8763 
1 2.70906 1.99602 2.62495 
1 -0.277243 -1.16038 0.453756 
1 -1.64181 -3.31704 -0.21098 
1 -0.158862 0.361844 -2.92023 
1 -0.9561 3.12129 2.37185 
1 -1.08624 -2.63906 2.64614 
1 0.10564 -2.56795 -0.756818 
1 -1.76132 0.696028 -0.880481 
1 1.93741 -1.1132 1.06561 
1 -0.858719 1.87111 1.24995 
1 -2.56824 3.72446 2.49924 
1 2.26862 2.40288 -0.155981 
1 0.451212 -0.011997 -0.780027 
1 -2.4706 -2.35356 -0.855791 
1 -2.24838 -3.67076 -2.4138 
1 -3.5171 3.13551 1.66052 
1 2.10801 -2.91888 -2.8547 
1 2.12607 1.60625 0.557969 
1 1.49672 3.70668 1.0907 
1 -2.89948 1.6436 0.406696 
1 1.63072 -3.17388 0.143005 
1 -3.46574 2.2763 1.00153 
1 2.55568 -0.0975598 3.48813 
1 -0.818773 -0.739727 1.9397 
1 2.9843 -1.59208 -0.510405 
1 0.139808 3.69106 -1.26122 
1 -3.06106 -0.431164 0.0756152 
1 -1.85903 -2.54576 -2.75883 
1 -0.753866 2.86255 3.34888 
1 3.22905 -3.63184 1.12125 
1 2.9376 -0.314817 -2.24539 
1 -0.293324 1.06485 -2.11581 
1 -2.88122 -1.11848 2.49205 
1 -3.60737 2.72905 -3.50901 
1 2.35061 -1.17969 -2.08071 
1 3.68221 2.25627 3.0388 
1 1.46683 -2.80708 2.94313 
1 2.86533 3.23989 -1.61482 
1 3.2396 -3.34275 3.30993 
1 -2.56782 2.44421 -1.09635 
1 3.1366 2.86758 -0.595461 
1 -0.158369 2.54174 2.00644 
1 3.50496 -1.09268 -1.82412 
1 2.02609 2.83787 2.62928 
1 -0.522616 -0.914286 -1.63207 
1 -2.3629 3.62286 1.41425 
1 -2.18854 -3.36747 -3.46625 
1 1.25207 1.87015 -0.00991984 
1 -3.42069 1.26149 3.06361 
1 1.48326 2.41741 -0.912724 
1 0.162427 1.67995 1.45496 
1 -2.64613 -2.84139 -1.87859 
1 0.444477 -0.946709 -2.23476 
1 -3.06169 3.1697 -0.373638 
1 3.00184 2.87239 -2.89375 
1 1.17065 -2.48351 -1.56085 
1 -2.22664 2.36988 -0.0899567 
1 -2.94634 0.37272 3.36431 
1 2.53859 0.642687 -2.49099 
1 2.46443 0.174557 0.805169 
1 2.06878 -2.21178 -2.05255 
1 -3.36025 -0.204834 -1.62827 
1 1.33305 3.5547 3.21185 
1 0.0446715 1.94231 -1.65534 
1 -2.54343 2.77841 2.07344 
1 -0.301128 -1.95409 2.24722 
1 -1.20942 3.63182 1.51776 
1 -1.52955 1.90903 2.62808 
1 0.111412 -1.15733 1.62676 
1 -2.30486 0.994014 2.72939 
1 0.118076 -0.0468864 1.69017 
1 -0.481244 -3.33136 -0.190653 
1 -0.546645 -1.92774 1.14959 
1 -0.733641 -3.08948 -1.23514 
1 0.207782 0.935376 -1.19995 
1 -3.56591 -1.11919 -0.84396 
1 3.13569 -1.55676 1.89031 
1 -3.68346 -0.370211 0.95078 
1 -1.21206 3.70063 -1.87772 
1 0.935313 -0.6733 1.14452 
1 3.02196 3.07291 3.339 
1 -2.58526 1.45773 -0.689194 
1 -0.973228 1.94567 -2.17532 
1 -3.50774 1.72044 -1.27642 
1 1.08842 -0.214965 -1.69651 
1 0.642105 2.86344 -1.7609 
1 2.85886 -0.721769 0.423251 
1 2.7872 1.26156 -1.64041 
1 -2.50809 2.81096 -2.09489 
1 -1.73483 -1.7328 -0.0368531 
1 -1.37198 2.48286 0.538965 
1 3.74629 1.66402 -3.4716 
1 -2.63006 1.96505 2.8283 
1 -2.14712 -0.916089 0.482978 
1 -2.35436 -2.56508 0.228483 
1 0.477312 3.34297 -2.77991 
1 1.21113 2.66322 -3.05839 
1 1.32035 -1.60768 2.77804 
1 0.491989 0.150359 3.67687 
1 -0.922957 -2.70177 -2.20756 
1 2.30949 1.26501 3.28556 
1 3.4724 1.30726 2.18224 
1 2.40729 3.49853 1.64319 
1 -0.0719962 -0.993872 -0.687314 
1 -0.463702 -0.648277 -2.699 
1 -2.43363 0.658846 1.72413 
1 1.7609 3.22691 -1.51719 
1 -1.5297 2.9198 -2.58086 
1 0.348418 -0.830186 -3.35725 
1 2.02478 -1.14753 3.40584 
1 -0.399197 -3.32577 0.909844 
1 1.84517 -0.191519 1.64961 
1 0.694735 2.85637 -0.349746 
1 0.334378 2.35156 0.585182 
1 -2.69975 -1.3595 -3.38179 
1 3.1441 -2.76195 -3.14435 
1 3.36997 -2.1745 2.85501 
1 2.38071 2.6152 0.94559 
1 -3.29113 0.456171 2.34771 
1 1.6699 3.30006 -0.3242 
1 -3.32411 1.23334 1.37993 
1 -2.25948 -1.21257 1.53558 
1 -1.61528 1.39145 3.7077 
1 -1.92724 1.78522 -2.72498 
1 3.56683 0.52374 -2.20531 
1 1.96017 1.41721 -0.760083 
1 -0.327208 -3.27579 -3.39046 
1 2.92663 -1.68829 -3.72041 
1 -2.66993 1.34883 -3.66011 
1 -0.581756 3.19665 -3.13158 
1 0.310342 0.227831 0.618328 
1 -1.49375 -0.761242 3.59889 
1 1.10193 -2.11342 -2.57002 
1 -3.57335 3.38027 2.72413 
1 -3.35142 0.732306 -3.12864 
1 2.43209 2.25971 -1.33918 
1 -1.38121 -0.651318 -2.19627 
1 1.17802 2.49001 3.19746 
1 1.56504 2.79788 1.64541 
1 3.3967 0.326278 1.65477 
1 1.23982 -2.77424 1.61155 
1 0.205913 1.14231 3.40744 
1 -2.46047 0.0238639 0.85187 
1 3.15556 -2.66453 -0.523967 
1 -3.59662 1.18139 -0.264163 
1 -1.35785 -2.84894 3.63623 
1 -1.30594 -1.75513 1.96794 
1 -3.29385 0.565733 0.525161 
1 0.272923 1.79736 -0.493714 
1 -2.84291 -2.08118 -2.57101 
1 1.51498 0.636836 2.23985 
1 -1.63657 -1.68042 -3.35481 
1 -0.76134 0.69641 3.71674 
1 0.484557 1.28785 0.499483 
1 -0.0580309 2.39298 -2.70682 
1 -1.75945 -3.15463 0.902816 
1 -1.01243 -1.60751 -2.45892 
1 1.55246 -2.11207 0.749006 
1 3.55408 0.651539 -1.12153 
1 2.47015 1.02642 2.21445 
1 3.08737 2.92134 2.26971 
1 2.39122 -2.66573 3.56401 
1 3.18717 -0.335218 -1.1265 
1 3.02871 -3.05668 -1.5277 
1 1.33451 -2.62513 -3.49265 
1 -0.185147 3.73463 1.90342 
1 0.704694 -3.13124 0.730192 
1 -3.16943 3.41036 0.687148 
1 -2.64414 -0.525896 -0.884857 
1 -2.18 2.30087 -3.65133 
1 -1.87542 -3.1163 2.02386 
1 -3.57922 -3.5356 -2.02931 
1 3.67079 3.7267 -3.22102 
1 2.95089 1.61883 -2.6877 
1 0.389212 -1.67943 -1.37581 
1 1.3205 -1.36909 -1.80052 
1 -0.440353 0.893487 0.99224 
1 0.287179 3.12406 3.58169 
1 -0.152458 0.830933 -0.197499 
1 2.75434 -1.74148 0.788153 
1 -3.517 2.82638 -1.35505 
1 -0.935517 3.41283 -0.815864 
1 0.536066 2.01956 -3.54285 
1 -3.3609 -1.25357 1.5216 
1 0.766107 1.7924 -2.46487 
1 1.47962 3.75887 2.1629 
1 -1.9906 -0.116613 -0.171252 
1 3.13732 1.92523 0.406884 
1 2.415 3.5649 0.445131 
1 -2.98189 0.801612 -1.6256 
1 0.261467 3.43265 0.434618 
1 0.533599 -1.7571 0.856159 
1 -0.59488 -1.35758 -3.50442 
1 -0.643115 -1.99443 -1.45652 
1 -1.60864 3.19402 -3.60001 
1 1.07243 1.54293 -1.38389 
1 3.02407 1.69858 -0.65641 
1 1.08918 -1.6139 -3.6569 
1 -2.83599 2.88418 3.23973 
1 1.60884 1.66821 2.64125 
1 0.573638 1.20827 2.42087 
1 -1.24023 -1.30932 -0.899436 
1 -0.497775 2.92862 1.09908 
1 -2.30698 -2.08994 2.17328 
1 1.88646 0.673189 0.0450191 
1 -1.03507 0.295308 -2.00176 
1 1.71479 -0.237172 2.82632 
1 -1.91448 1.60766 0.851021 
1 3.13008 -3.47478 2.23151 
1 0.885456 -0.746193 3.22083 
1 -1.19181 2.37399 -0.607189 
1 -0.243423 1.4456 -3.13358 
1 -3.37308 -3.01388 0.537381 
1 3.13415 0.666403 2.94693 
1 1.8676 -0.191717 -2.47313 
1 -2.7259 -3.32318 -0.390544 
1 1.04423 -0.909996 -0.864254 
1 -0.936615 -2.78874 1.62878 
1 -1.73917 -2.23359 -1.71814 
1 -2.06128 -1.43637 -2.37888 
1 2.91048 -3.56275 -2.45554 
1 -2.6577 3.18332 -3.17687 
1 3.44024 0.0442957 -0.108016 
1 -3.19832 -1.8406 -1.58538 
1 0.666556 3.11984 2.4761 
1 3.31446 -3.61703 0.0248091 
1 2.91436 0.915527 0.130313 
1 1.55687 -1.52101 -0.176609 
1 3.34065 2.93468 0.502858 
1 -1.57084 0.583547 1.00689 
1 -1.26662 -1.08468 1.05221 
1 -1.96776 0.823688 -1.94839 
1 -3.70358 -1.26702 0.243049 
1 1.53768 0.042645 -0.725068 
1 0.160134 -2.75642 -1.81399 
1 -0.504817 2.91799 -1.91492 
1 2.32044 -2.01886 2.71744 
1 -1.58116 -0.333287 -1.15325 
1 -0.679484 0.303368 -0.992516 
1 2.04298 -3.29096 -1.86534 
1 2.06649 -1.56863 -1.09784 
1 0.164785 -2.68922 1.56431 
1 3.61612 -3.71658 -0.956676 
1 -2.93177 2.15046 -2.89501 
1 -1.50536 1.24985 1.81361 
1 3.45505 -0.989435 -2.90668 
1 1.87521 0.919503 1.30835 
1 0.0249042 0.0149442 -1.84552 
1 -1.74137 -0.264826 1.62941 
1 -3.42577 -3.02213 2.66086 
1 -0.8633 0.39418 1.84823 
1 -0.282638 0.458601 2.73124 
1 -1.37634 -2.42048 -0.734116 
1 -0.763158 -2.33288 -3.18092 
1 -3.72397 -2.07616 0.962257 
1 2.18 -2.97946 1.06066 
1 1.71552 -0.518967 0.211625 
1 0.580784 3.1192 1.39469 
1 -0.153826 2.68669 -0.952127 
1 2.53861 0.484866 -0.815453 
1 -3.50129 -2.6818 3.65491 
1 0.62038 -3.06099 -2.77455 
1 -1.07999 -2.56118 0.346535 
1 -0.310727 -3.56126 -2.31118 
1 -1.84839 0.297117 3.5142 
1 -2.33359 -0.494168 -1.87111 
1 -3.43371 -2.77876 -1.15975 
1 1.34965 2.78596 0.560948 
1 -3.62312 -1.88335 -3.2172 
1 -2.00416 3.2713 -0.750516 
2 2.47503 2.61098 -2.14593 
2 3.70494 1.30435 0.616519 
2 1.29456 1.40332 1.85394 
2 -1.86886 0.0764996 -2.41542 
2 2.80067 -1.11394 -1.27221 
2 0.982394 3.36639 -1.04573 
2 1.34719 1.11759 0.595934 
2 0.0886989 -0.552581 0.949941 
2 1.20847 -1.26402 0.566428 
2 -1.68515 0.456848 2.17498 
2 -1.4448 3.05333 -0.130625 
2 2.52776 0.0142377 -0.0547946 
2 -2.98703 2.6036 0.320914 
2 -1.02434 -3.4451 2.26464 
2 -1.40406 2.2762 3.42023 
2 -3.25847 2.26765 -1.99615 
2 -3.47723 -0.23354 -0.742816 
2 -3.22308 0.35204 1.37715 
2 3.20124 1.49801 3.24708 
2 -1.73473 -3.05248 -2.06562 
2 -0.721365 2.29593 2.6543 
2 3.31402 -2.032 0.155574 
2 -2.58644 0.992218 0.941391 
2 -3.04253 1.3125 2.24996 
2 3.32621 0.389248 0.750299 
2 1.38933 -2.91323 -2.33025 
2 1.25537 3.15832 -2.31648 
2 3.62526 2.2201 -2.79584 
2 1.19354 -1.7666 -0.992032 
2 -1.2686 -0.928986 -3.0247 
2 2.52028 -3.13795 -0.0252405 
2 -1.80972 3.39312 2.1425 
2 1.11508 3.60834 0.294582 
2 1.01839 0.570888 -1.24216 
2 2.76276 -2.82939 2.76628 
2 0.890875 1.6501 3.16923 
2 3.37657 -1.18077 1.04366 
2 3.13137 -0.779662 -3.72469 
2 -0.1726 -2.73429 -2.67237 
2 -1.15058 1.24766 0.60064 
2 0.587437 -1.52357 -2.9209 
2 2.78704 -2.68568 -2.29649 
2 -1.58558 -0.246212 0.656783 
2 0.360123 -0.69493 -1.39579 
2 -1.01572 -1.6644 0.444482 
2 -0.780522 2.22529 -1.37417 
2 -2.89251 -0.788453 0.927547 
2 -1.71922 3.14377 1.01257 
2 2.29153 2.97673 -0.861334 
2 -0.909966 -2.07176 3.43131 
2 -1.00893 -3.71064 3.68864 
2 2.41953 0.0294727 -3.11752 
2 2.31524 1.47481 -3.28018 
2 0.642148 2.30437 -1.09313 
2 -0.00599197 3.40498 -0.437599 
2 -1.12456 1.15351 -1.76483 
2 1.79039 -3.30635 3.62408 
2 -3.06444 2.11126 3.60951 
2 -0.265938 -2.87708 2.33047 
2 -2.43012 -1.42705 3.21983 
2 3.66993 -1.99261 -0.919954 
2 -2.23561 3.5337 3.32345 
2 -0.257162 2.37283 -3.59908 
2 0.666332 -3.10309 -1.17181 
2 -2.53845 0.0984164 -3.39363 
2 1.93278 1.5826 -1.6513 
2 -0.815889 -0.54282 -0.767169 
2 3.70249 0.599863 3.59738 
2 1.46139 0.559746 -2.6051 
2 -2.73797 1.06051 -2.4749 
2 -2.72796 -2.88475 2.14701 
2 3.77242 -1.45031 2.51327 
2 0.853643 -2.37444 0.291331 
2 -3.64032 -1.67415 -2.37293 
2 2.19433 0.497447 2.88063 
2 -2.00502 3.42495 -1.6383 
2 -0.0537363 0.83745 1.85439 
2 -3.11091 -0.310943 2.76393 
2 0.997477 0.113838 -0.0169571 
2 0.665205 -3.47883 1.61868 
2 3.11304 2.99765 1.36054 
2 -1.43449 -1.39401 -1.73004 
2 -2.36915 0.21044 -1.33105 
2 -1.94681 -0.952966 -0.486204 
2 -3.00842 -0.996852 -1.53822 
2 -0.149746 3.06926 2.74919 
2 0.505172 -1.42925 2.38298 
2 2.05626 2.14937 3.24468 
2 2.40121 2.62847 1.85224 
2 2.36169 -1.36027 0.0948744 
2 -2.58474 -3.3551 0.665118 
2 0.762787 -2.32289 3.32663 
2 1.76477 -2.04882 3.42571 
2 3.26553 -0.779001 -0.349854 
2 -3.63416 -0.288632 -2.49506 
2 2.52086 0.37686 1.64392 
2 1.57497 -2.26455 2.25302 
2 2.82356 0.34844 -1.65623 
2 1.0048 0.0370717 1.73692 
2 -3.56492 -3.08978 -0.340862 
