ITEM: TIMESTEP
401
ITEM: NUMBER OF ATOMS
500
ITEM: BOX BOUNDS xy xz yz pp pp pp
-3.7345 3.77931 0.044814
-3.7345 3.7345 0
-3.7345 3.7345 0
ITEM: ATOMS type xu yu zu 
1 -2.84909 -2.0834 -2.57758 
1 -3.05789 -3.09217 -2.89299 
1 -2.48731 -2.35556 -3.58625 
1 -2.18496 -3.36904 -3.46584 
1 -1.8589 -2.5458 -2.7537 
1 -0.921139 -2.7016 -2.20416 
2 -1.73238 -3.05136 -2.06126 
1 -0.768108 -2.33073 -3.1775 
1 0.277319 -2.24785 -3.37197 
1 -0.329212 -3.27171 -3.39191 
2 -0.173631 -2.73371 -2.67341 
1 0.619574 -3.0609 -2.77373 
1 -3.24111 -0.406933 -3.32121 
1 -3.07108 -1.00046 -2.42616 
1 -2.70583 -1.36241 -3.38899 
1 -2.33879 -0.494887 -1.87199 
1 -2.13725 -0.5616 -2.99068 
1 -2.06806 -1.43929 -2.37396 
1 -1.01757 -1.60649 -2.45481 
1 -1.64267 -1.67738 -3.34901 
2 -1.27058 -0.927165 -3.0264 
1 -1.38711 -0.650334 -2.19891 
1 -0.0154191 -1.89875 -2.39961 
1 0.343236 -0.830384 -3.35782 
2 0.581884 -1.52386 -2.92166 
1 -0.467885 -0.647099 -2.69854 
1 0.439496 -0.946788 -2.23468 
1 -0.600403 -1.35705 -3.50469 
1 -2.64307 -2.83779 -1.87912 
1 -3.43245 -2.77926 -1.16029 
1 -2.72656 -3.32402 -0.390641 
1 -2.47152 -2.3529 -0.853317 
1 -3.36856 -2.23259 -0.183189 
2 -3.56496 -3.08994 -0.340606 
1 -1.64316 -3.3174 -0.208578 
1 -1.73561 -2.23134 -1.71356 
1 -1.90994 -3.24051 -1.22489 
1 -1.37729 -2.42118 -0.729514 
1 -0.732615 -3.08782 -1.23091 
1 -0.642466 -1.99413 -1.4527 
1 0.159858 -2.75572 -1.81376 
1 0.109332 -2.567 -0.755418 
1 -0.479773 -3.3314 -0.188682 
1 0.619672 -3.46212 -0.358127 
2 0.666205 -3.10379 -1.17243 
1 -3.20069 -1.84132 -1.58979 
1 -3.5691 -1.12037 -0.845304 
1 -3.3644 -0.204574 -1.62829 
2 -3.01305 -0.997013 -1.54058 
1 -2.64905 -0.526081 -0.885561 
1 -2.7072 -1.41339 -0.308519 
2 -3.48228 -0.234785 -0.742968 
1 -2.23027 -1.39107 -1.28914 
2 -1.43976 -1.38789 -1.72728 
1 -1.58526 -0.338256 -1.15359 
2 -1.95069 -0.953671 -0.486784 
1 -1.24387 -1.3135 -0.896379 
2 -0.819314 -0.545769 -0.768061 
1 -0.576378 -1.85592 -0.305407 
1 -0.530304 -0.91213 -1.63021 
1 0.388088 -1.67816 -1.37658 
1 -0.0743348 -0.99453 -0.687553 
2 0.355918 -0.693948 -1.39609 
2 -3.64581 -1.67572 -2.37535 
1 -1.99529 -0.117378 -0.172247 
2 -3.6389 -0.289597 -2.49455 
1 -1.27787 -3.45258 -2.90656 
1 -3.58048 -3.53736 -2.02732 
1 -2.24451 -3.67045 -2.41152 
1 -0.344562 -0.202637 -0.0764802 
1 0.524899 -1.71093 -0.223573 
1 -0.309714 -3.561 -2.31271 
1 0.820185 -0.0645857 -2.75543 
1 0.944622 -3.56782 -1.89683 
1 -3.63087 -1.88025 -3.22159 
1 1.08303 -0.213264 -1.69713 
1 1.08415 -1.6144 -3.65742 
1 1.09663 -2.11153 -2.56802 
1 1.04117 -0.908059 -0.864282 
1 1.16927 -2.48146 -1.55859 
2 1.19112 -1.76434 -0.991253 
1 1.1864 -2.48498 -0.502386 
1 1.3317 -2.62403 -3.49138 
1 1.35728 -1.05542 -2.81603 
1 1.31803 -1.3649 -1.80091 
1 1.35943 -3.70645 -3.18629 
2 1.38906 -2.90963 -2.329 
1 1.4692 -3.37589 -0.975419 
1 1.55182 -0.275626 -3.54339 
1 1.56014 -1.51723 -0.178926 
1 0.447301 -0.0110817 -0.78055 
1 -1.24166 -0.000418786 -3.07601 
1 -1.7398 -1.73327 -0.0341312 
1 1.8627 -0.191137 -2.47277 
1 -3.36772 -3.28771 1.64146 
1 -3.37428 -3.01521 0.539338 
1 -2.62539 -2.64141 1.28592 
2 -2.58619 -3.35684 0.666748 
1 -2.35743 -2.56701 0.230904 
1 -1.76079 -3.15564 0.9039 
1 -1.0806 -2.56136 0.348807 
1 -0.935665 -2.78946 1.62796 
1 -1.73931 -2.05202 1.0233 
1 -0.0225185 -2.48901 0.335313 
1 0.164988 -2.68613 1.56143 
1 -0.39791 -3.32771 0.9104 
2 0.663242 -3.47743 1.61895 
1 0.706117 -3.12949 0.729034 
1 0.531702 -1.75336 0.855017 
2 0.85152 -2.37195 0.29073 
1 -2.78189 -1.71063 0.720772 
2 -2.89763 -0.78903 0.926449 
1 -3.36513 -1.25386 1.52148 
1 -2.26337 -1.21421 1.53648 
1 -2.87876 -0.350493 1.73915 
1 -2.15121 -0.915232 0.484132 
2 -1.01801 -1.66412 0.443305 
1 -1.7456 -0.265739 1.62783 
1 -1.27023 -1.08545 1.05168 
2 -1.58909 -0.245383 0.655525 
1 -0.549075 -1.92623 1.1492 
1 -0.730112 -0.172479 0.92708 
1 -0.280422 -1.15868 0.453017 
1 0.107759 -1.15715 1.62742 
2 0.0865096 -0.551938 0.950035 
1 0.639801 -0.68833 0.124899 
1 -3.6875 -0.370081 0.950665 
1 0.114225 -0.0467776 1.68977 
1 -3.06613 -0.430733 0.0749268 
1 -3.70745 -1.26785 0.243525 
1 1.14958 -1.67277 1.70482 
1 0.932539 -0.677009 1.14423 
2 1.20653 -1.26225 0.561647 
1 1.23913 -2.77406 1.6126 
1 1.55054 -2.11005 0.74747 
1 -1.1965 -0.796019 0.020862 
1 1.63218 -3.17444 0.142891 
1 1.71286 -0.514313 0.209966 
1 1.84172 -0.191429 1.65032 
1 -3.5283 1.489 -2.34393 
1 -3.35767 0.732829 -3.12743 
2 -2.74342 1.06059 -2.47655 
1 -2.8217 0.148925 -2.48833 
1 -2.1114 0.727266 -3.00787 
1 -2.57895 1.73686 -1.89603 
1 -2.92114 0.435354 -0.607597 
1 -2.98725 0.802076 -1.62698 
1 -2.58957 1.45668 -0.689884 
2 -2.37569 0.210112 -1.33306 
1 -3.51217 1.7212 -1.27576 
1 -3.60196 1.18081 -0.264307 
1 -2.67656 1.34949 -3.65963 
1 -1.97355 0.823311 -1.95104 
1 -1.93346 1.78392 -2.72743 
2 -1.8757 0.0756125 -2.41844 
1 -1.76513 0.693451 -0.883254 
1 -1.68926 1.68847 -1.31095 
1 -1.53309 1.49582 -0.174381 
1 -1.15209 1.04726 -2.75705 
2 -1.13042 1.1535 -1.76578 
1 -1.04082 0.295566 -2.00175 
1 -0.716743 1.4297 -0.969922 
1 -0.684234 0.301147 -0.993061 
1 -0.298959 1.06548 -2.11676 
1 -0.250096 1.44633 -3.13435 
2 -2.54052 0.0931203 -3.39575 
1 -0.157804 0.831342 -0.198386 
1 -0.163938 0.362972 -2.92147 
1 0.202223 0.935254 -1.20092 
1 0.267837 1.79749 -0.494675 
1 0.760106 1.79346 -2.46542 
1 0.780282 0.777877 -2.09032 
1 0.848128 0.973284 -3.1689 
1 0.947486 0.915818 -0.415251 
2 1.01379 0.573427 -1.24302 
2 0.996488 0.116485 -0.0162764 
1 1.06691 1.54338 -1.3842 
2 1.45593 0.559503 -2.60517 
1 1.53308 0.0447626 -0.726946 
1 1.5373 1.72454 -3.61492 
1 0.0196722 0.0152374 -1.84652 
1 1.75206 1.37213 -2.50906 
1 1.80364 0.681296 -1.6593 
2 -3.22681 0.351887 1.37682 
2 -2.59046 0.990964 0.940347 
1 -3.32671 1.23342 1.3796 
1 -2.90303 1.64332 0.406043 
1 -3.29918 0.565991 0.52499 
1 -2.43739 0.658627 1.72359 
1 -2.44239 1.75164 1.76525 
1 -2.26443 0.82701 0.154989 
1 -1.91879 1.60646 0.850595 
1 -1.57517 0.583175 1.00598 
1 -1.5079 1.24891 1.81237 
2 -1.15506 1.24739 0.599627 
1 -2.46554 0.0243978 0.85094 
1 -0.549091 1.75872 0.213983 
1 -1.1476 0.49769 0.0509083 
1 -0.445322 0.893808 0.99172 
1 0.157994 1.67999 1.45516 
1 0.305555 0.229164 0.6172 
1 0.478799 1.28899 0.49902 
1 0.754983 0.824234 1.44388 
2 1.00099 0.0368639 1.73466 
1 1.31712 0.226553 0.805302 
2 1.3406 1.11607 0.597457 
1 1.87108 0.919481 1.30805 
1 1.87983 0.671323 0.046533 
1 1.90502 0.699232 -3.3585 
2 1.92731 1.58178 -1.65093 
1 1.93535 -1.11208 1.06253 
1 1.95416 1.41534 -0.759698 
1 2.0168 -1.86641 -3.15895 
1 2.04287 -3.29076 -1.86676 
1 -3.72599 -2.07734 0.962775 
2 3.66967 -1.99457 -0.921684 
1 3.1424 -2.76264 -3.14655 
2 2.78417 -2.68673 -2.29508 
2 2.52036 -3.13897 -0.0274853 
2 3.12664 -0.776799 -3.72456 
1 2.50302 -3.64727 -0.742024 
1 2.43375 -0.844225 -3.13135 
1 3.44791 -0.988951 -2.90587 
1 2.91845 -1.68388 -3.72047 
1 3.15545 -2.66614 -0.524418 
1 2.06461 -1.57134 -1.10181 
1 2.06541 -2.21215 -2.05317 
1 3.5026 -1.09247 -1.82565 
1 2.10692 -2.91734 -2.85555 
1 3.18245 -0.336314 -1.12686 
1 2.18905 -2.60966 -1.02295 
2 3.26243 -0.780875 -0.349703 
2 2.79784 -1.11544 -1.27497 
1 3.0123 -1.98951 -1.52163 
1 2.91054 -3.56201 -2.45653 
1 2.17437 -0.329788 -1.48209 
1 3.02936 -3.05853 -1.52759 
1 2.50197 -3.69031 -3.44796 
1 2.9325 -0.314491 -2.24411 
1 2.98295 -1.59447 -0.514533 
1 2.94711 -1.86472 -2.60545 
1 2.34767 -1.18073 -2.08414 
1 3.68843 -2.52892 -2.22443 
1 2.38902 -0.720248 -0.541331 
1 3.61785 -3.7171 -0.956043 
1 2.28313 -2.27561 -0.0176562 
2 3.37263 -1.18049 1.04409 
2 3.30856 -2.03197 0.155019 
1 3.31405 -3.61802 0.0245902 
1 3.2322 -3.63144 1.12208 
1 2.8386 -0.610263 1.47806 
1 2.75193 -1.74372 0.790603 
1 2.17806 -2.97665 1.06159 
1 3.09862 -2.60515 1.64159 
1 2.85562 -0.72217 0.423795 
1 2.16476 -2.01401 1.63775 
1 3.05486 -2.75431 0.551417 
2 2.3656 -1.36478 0.0941319 
2 2.52093 0.0116753 -0.0546732 
2 2.31023 1.4762 -3.28156 
1 2.97949 0.932515 -3.48401 
1 2.9451 1.61986 -2.68829 
1 3.56193 0.523201 -2.20488 
1 3.43459 0.0439303 -0.108907 
1 2.78233 1.26159 -1.64034 
2 2.81698 0.348319 -1.65579 
1 3.54877 0.651347 -1.12204 
1 2.5338 0.483432 -0.814718 
1 3.01842 1.69792 -0.656169 
1 2.53385 0.643366 -2.49085 
2 2.41385 0.032016 -3.11818 
1 3.74011 1.6637 -3.47236 
1 3.28649 0.0026827 -3.19388 
1 3.39307 0.326572 1.65398 
2 3.70155 1.30602 0.616636 
1 2.90842 0.914443 0.130418 
1 2.94658 1.13703 1.17313 
1 2.11989 1.60542 0.556931 
1 2.45957 0.173434 0.805442 
2 3.32119 0.388925 0.749857 
2 2.51727 0.378316 1.6435 
1 -2.9374 2.14987 -2.89537 
1 -2.6615 3.18228 -3.17676 
1 -2.51249 2.81093 -2.09494 
2 -3.26306 2.26786 -1.99641 
1 -3.06762 3.1682 -0.374816 
1 -3.52158 2.82738 -1.35632 
1 -2.57378 2.4433 -1.0965 
1 -3.51457 2.22798 -0.287611 
1 -2.01117 3.27142 -0.749778 
1 -3.50378 2.97844 -2.46047 
1 -2.18686 2.30094 -3.65287 
1 -2.22973 2.36921 -0.0907003 
1 -3.61216 2.72867 -3.50945 
1 -2.79545 3.64873 -1.35673 
2 -2.01003 3.42466 -1.63659 
2 -1.45338 3.05093 -0.129665 
1 -1.61361 3.19254 -3.59858 
1 -1.53228 2.92083 -2.57885 
1 -1.52997 2.70567 -1.54639 
1 -1.19621 2.373 -0.606379 
1 -1.06399 2.20893 -3.23783 
1 -0.942123 3.41278 -0.813348 
1 -0.979787 1.94574 -2.17586 
2 -0.786559 2.22447 -1.37433 
1 -0.586423 3.19799 -3.13305 
1 -0.510934 2.91828 -1.91467 
2 -0.262844 2.37217 -3.59945 
1 -0.160154 2.68665 -0.951558 
1 -0.0646841 2.39341 -2.70702 
1 0.0388481 1.94284 -1.65531 
2 -0.0118112 3.40549 -0.437374 
1 0.131699 3.69106 -1.2619 
1 0.471346 3.34272 -2.77968 
1 0.530473 2.0198 -3.54292 
1 0.636014 2.86418 -1.76115 
2 0.636764 2.3055 -1.09343 
1 0.68914 2.857 -0.350043 
2 0.974532 3.36811 -1.0462 
1 -1.21694 3.70191 -1.8742 
1 1.20575 2.66446 -3.05901 
2 1.24927 3.15936 -2.31661 
1 1.24642 1.87113 -0.00967419 
1 1.47828 2.41689 -0.912243 
1 1.56896 2.33288 -2.01526 
1 1.66472 3.30047 -0.32468 
1 1.75371 3.22776 -1.51628 
1 -2.42536 2.57714 0.997691 
1 -3.52281 3.13319 1.66049 
1 -3.17729 3.40858 0.686512 
2 -2.98984 2.60327 0.319906 
1 -3.4722 2.27532 0.998751 
1 -2.37094 3.6217 1.41529 
1 -2.17691 3.39 0.305289 
2 -1.72713 3.14297 1.01327 
1 -1.56738 2.56818 1.68523 
1 -1.37725 2.48274 0.540696 
1 -1.21706 3.63148 1.51827 
1 -1.10364 3.54776 0.474885 
1 -0.862116 1.87177 1.24929 
1 -0.503481 2.93089 1.09998 
1 -0.489551 2.82127 0.0259693 
1 0.256893 3.43277 0.435202 
1 0.328426 2.35226 0.585912 
1 0.574724 3.11953 1.39588 
2 1.10964 3.60881 0.293873 
1 1.18503 1.84751 1.09575 
1 1.34389 2.78709 0.560919 
1 1.48841 3.7078 1.09169 
1 1.55928 2.79835 1.64501 
1 2.0802 3.29271 -2.53785 
1 2.06474 1.85897 1.69589 
1 2.8001 2.10451 -3.71578 
1 2.14874 2.26086 -2.8934 
1 2.99669 2.87202 -2.89352 
2 2.28524 2.97541 -0.861922 
1 2.42685 2.2588 -1.33933 
1 2.26333 2.40331 -0.15547 
1 3.13112 2.86625 -0.597492 
1 3.28837 2.28394 -1.96438 
1 2.85913 3.23938 -1.61634 
2 2.47044 2.60874 -2.14676 
2 3.62038 2.21975 -2.79605 
1 3.66251 3.72622 -3.22251 
1 3.13081 1.92405 0.407135 
1 2.40079 3.50042 1.64263 
2 3.10625 2.99899 1.36085 
1 3.33197 2.93412 0.503022 
1 2.37434 2.61453 0.945849 
1 2.4078 3.56623 0.44827 
1 3.10179 2.1279 1.55918 
1 -0.867301 0.393168 1.84739 
2 -0.0584435 0.837365 1.8539 
1 -0.822349 -0.739397 1.9388 
1 -3.3866 -2.20048 1.99356 
2 -2.72659 -2.88479 2.14964 
1 -3.42268 -3.0194 2.66609 
1 -2.3082 -2.08877 2.17906 
1 -2.32467 -2.87357 2.98614 
1 -3.01427 -2.03434 2.99138 
1 -1.87453 -3.11552 2.02434 
1 -1.0837 -2.63989 2.6458 
2 -1.02322 -3.44579 2.2647 
2 -0.901344 -2.07576 3.42791 
1 -1.74194 -1.95212 3.10427 
1 0.50376 -3.30814 2.51514 
1 -0.17232 -2.56945 3.17828 
2 -0.263952 -2.87778 2.32741 
1 0.654464 -2.30279 2.43896 
1 -0.463201 -3.58199 2.98028 
2 0.758917 -2.32499 3.32704 
1 -3.08083 -3.60755 3.51289 
1 -2.8856 -1.11808 2.49199 
1 -2.5303 -0.585989 3.40089 
2 -3.11576 -0.310819 2.76507 
1 -3.55724 -1.20571 3.39444 
2 -2.42189 -1.42305 3.21391 
1 -1.20874 -0.156307 2.73995 
1 -1.30734 -1.75622 1.96837 
1 -1.49936 -0.763106 3.59702 
1 -1.83897 -1.02174 2.5579 
1 -0.853554 -1.32139 2.91628 
1 -0.30251 -1.95429 2.24719 
1 -0.489582 -0.343062 3.58046 
1 0.19612 -1.58256 3.2059 
1 -0.0104647 -0.679159 2.62446 
2 0.501492 -1.42982 2.38371 
1 0.583648 -3.22258 3.57405 
1 -1.55348 -3.62779 2.94611 
1 -1.35304 -2.85223 3.63544 
1 -2.29168 -0.0457613 2.55145 
1 0.881381 -0.746378 3.22075 
1 1.02084 -0.742853 2.17179 
1 1.31722 -1.60698 2.7779 
1 1.4646 -2.80681 2.94437 
1 -3.49424 -2.68531 3.66257 
2 1.57266 -2.26398 2.25467 
2 -1.00776 -3.71206 3.68825 
1 1.71039 -0.2363 2.8256 
2 1.76138 -2.04744 3.42573 
2 1.78901 -3.30469 3.62536 
1 -2.95092 0.374106 3.36558 
1 -3.42566 1.26293 3.06233 
1 -3.29498 0.455752 2.34793 
2 -3.04575 1.31173 2.24946 
1 -2.30902 0.992766 2.72909 
1 -1.8521 0.296167 3.51238 
1 -1.62202 1.39121 3.70554 
2 -1.68919 0.455827 2.17365 
1 -1.25169 0.903433 2.79933 
1 -0.767528 0.696361 3.71619 
1 -0.69243 1.74018 3.34625 
1 -0.504979 1.49717 2.28594 
1 -0.287201 0.457878 2.73092 
1 0.200326 1.14197 3.40759 
1 0.487064 0.150082 3.67617 
1 0.56881 1.20783 2.42099 
1 0.688373 0.146378 2.60795 
2 0.885644 1.64961 3.16935 
1 1.26966 0.818473 3.26104 
2 1.28959 1.40378 1.85364 
1 1.50991 0.63726 2.23915 
1 1.60361 1.66827 2.64111 
2 3.76742 -1.4493 2.51426 
1 -0.191473 3.73495 1.90369 
1 1.47275 3.75867 2.16376 
1 2.01862 -1.14468 3.40604 
1 3.37031 -2.17385 2.86369 
1 3.66254 -0.572962 2.22703 
1 2.55059 -0.0956108 3.48792 
1 3.6148 -0.210125 3.24555 
1 2.09606 -1.08108 2.20095 
1 2.66869 -0.0950336 2.38855 
1 3.13012 -3.47114 2.23352 
1 2.174 -2.94446 2.13302 
2 2.76117 -2.82632 2.76746 
1 2.27871 -3.62256 2.93975 
1 2.31946 -2.01624 2.71815 
1 2.38843 -2.66301 3.5644 
1 2.96793 -1.05995 2.87608 
1 3.13157 -1.55658 1.89222 
1 3.23952 -3.33722 3.31122 
1 3.12858 0.668829 2.94708 
2 3.19625 1.49983 3.2472 
1 3.46779 1.30672 2.18048 
2 3.69773 0.603552 3.59711 
2 2.18958 0.498681 2.88032 
1 2.30436 1.26629 3.28556 
1 2.46498 1.02759 2.21421 
1 -3.39739 2.14542 2.06802 
1 -2.6333 1.96375 2.82804 
1 -2.54782 2.77823 2.07439 
1 -2.84324 2.88282 3.23636 
1 -3.57981 3.38386 2.72355 
2 -2.24107 3.53037 3.32519 
1 -2.5738 3.72449 2.50078 
2 -3.07115 2.11044 3.60723 
1 -1.85417 2.85392 2.88322 
2 -1.81618 3.39206 2.14364 
1 -1.53447 1.90792 2.62665 
2 -1.41035 2.27349 3.41977 
1 -0.962078 3.12016 2.37148 
1 -0.760377 2.86088 3.34861 
2 -0.726697 2.29485 2.65393 
1 -0.164041 2.54121 2.00616 
2 -0.155888 3.0678 2.74942 
1 0.153174 2.21217 2.95112 
1 0.281281 3.122 3.58171 
1 0.660394 3.1193 2.47711 
1 0.859186 2.16349 2.09471 
1 1.17269 2.48954 3.19707 
1 1.3272 3.55375 3.21343 
1 2.02033 2.83847 2.62895 
1 2.02143 2.90207 3.73369 
2 2.05112 2.14974 3.24427 
2 2.39521 2.62966 1.85205 
1 3.67664 2.25798 3.03681 
1 2.70385 1.99708 2.62424 
1 3.08025 2.92442 2.27024 
1 3.01813 3.07638 3.34038 
