ITEM: TIMESTEP
703
ITEM: NUMBER OF ATOMS
500
ITEM: BOX BOUNDS xy xz yz pp pp pp
-3.7345 3.82413 0.089628
-3.7345 3.7345 0
-3.7345 3.7345 0
ITEM: ATOMS type xu yu zu 
1 -2.80443 -2.0599 -2.51366 
1 -3.10089 -3.0166 -2.92083 
1 -2.54249 -2.31823 -3.61663 
1 -2.22673 -3.3442 -3.46187 
1 -1.87466 -2.53738 -2.79088 
1 -0.939839 -2.69506 -2.22857 
2 -1.75112 -3.05072 -2.09365 
1 -0.744387 -2.34395 -3.20533 
1 0.304144 -2.22676 -3.37923 
1 -0.311867 -3.29376 -3.38384 
2 -0.17426 -2.72863 -2.66829 
1 0.616111 -3.05307 -2.78381 
1 -3.19635 -0.405453 -3.31953 
1 -3.04841 -0.977662 -2.38933 
1 -2.66632 -1.33829 -3.30888 
1 -2.2993 -0.477429 -1.86398 
1 -2.10454 -0.503627 -2.99682 
1 -2.02346 -1.40029 -2.40242 
1 -0.987045 -1.60862 -2.48335 
1 -1.61282 -1.68644 -3.38041 
2 -1.2649 -0.927318 -3.01433 
1 -1.34031 -0.646119 -2.17786 
1 0.0150598 -1.8925 -2.40404 
1 0.378245 -0.834444 -3.35894 
2 0.623589 -1.52037 -2.91594 
1 -0.437325 -0.652466 -2.7102 
1 0.476428 -0.941398 -2.2416 
1 -0.571089 -1.35971 -3.51048 
1 -2.66778 -2.86223 -1.87273 
1 -3.44368 -2.77107 -1.15329 
1 -2.72955 -3.31798 -0.400611 
1 -2.4654 -2.35253 -0.869114 
1 -3.35112 -2.23224 -0.187578 
2 -3.57128 -3.08917 -0.342061 
1 -1.63911 -3.31759 -0.226795 
1 -1.76685 -2.23584 -1.74829 
1 -1.90919 -3.24374 -1.24509 
1 -1.37265 -2.41823 -0.765075 
1 -0.742488 -3.1003 -1.26324 
1 -0.645097 -2.0017 -1.47404 
1 0.162199 -2.75278 -1.81784 
1 0.0806506 -2.57177 -0.767293 
1 -0.490455 -3.33294 -0.204087 
1 0.609811 -3.46283 -0.356417 
2 0.663751 -3.09467 -1.16817 
1 -3.19127 -1.82806 -1.55223 
1 -3.55452 -1.10546 -0.837986 
1 -3.33952 -0.204998 -1.62476 
2 -2.97871 -0.98952 -1.51648 
1 -2.61514 -0.515737 -0.877595 
1 -2.68704 -1.41426 -0.32181 
2 -3.45102 -0.224341 -0.741491 
1 -2.199 -1.38293 -1.29845 
2 -1.40608 -1.4198 -1.74671 
1 -1.55797 -0.302251 -1.14589 
2 -1.92333 -0.945714 -0.489099 
1 -1.21345 -1.28147 -0.921383 
2 -0.801005 -0.518143 -0.753717 
1 -0.582814 -1.84419 -0.314295 
1 -0.470039 -0.945728 -1.65897 
1 0.393771 -1.68299 -1.37281 
1 -0.0651351 -0.982097 -0.692918 
2 0.389187 -0.701771 -1.39821 
2 -3.6086 -1.66259 -2.35396 
1 -1.95928 -0.110219 -0.159715 
2 -3.61115 -0.282815 -2.50092 
1 -1.29474 -3.43704 -2.93154 
1 -3.57518 -3.52338 -2.04517 
1 -2.27169 -3.66953 -2.42462 
1 -0.319247 -0.197726 -0.0652297 
1 0.509147 -1.71619 -0.231858 
1 -0.319617 -3.55282 -2.30621 
1 0.8623 -0.0680398 -2.76117 
1 0.934162 -3.56533 -1.8996 
1 -3.57256 -1.91556 -3.18117 
1 1.1165 -0.219127 -1.69668 
1 1.12535 -1.60437 -3.65169 
1 1.13168 -2.12117 -2.57944 
1 1.06404 -0.916205 -0.860993 
1 1.17904 -2.4929 -1.57473 
2 1.20099 -1.7768 -0.994566 
1 1.14996 -2.50215 -0.519182 
1 1.34783 -2.63012 -3.49551 
1 1.40649 -1.06901 -2.80134 
1 1.33108 -1.38641 -1.7957 
1 1.35476 -3.70216 -3.18213 
2 1.38935 -2.93223 -2.34732 
1 1.46174 -3.38344 -0.976983 
1 1.59263 -0.304455 -3.54507 
1 1.54048 -1.5493 -0.168907 
1 0.472913 -0.0144627 -0.779743 
1 -1.19401 0.0125948 -3.0621 
1 -1.71557 -1.73003 -0.0646587 
1 1.89792 -0.194397 -2.47901 
1 -3.35874 -3.30163 1.60646 
1 -3.37318 -3.01333 0.528625 
1 -2.61554 -2.65163 1.25996 
2 -2.58206 -3.35027 0.658187 
1 -2.339 -2.56169 0.211927 
1 -1.75107 -3.15256 0.89261 
1 -1.07981 -2.55894 0.32553 
1 -0.937869 -2.78736 1.6366 
1 -1.72839 -2.04232 1.00153 
1 -0.0196153 -2.48893 0.316933 
1 0.162368 -2.70153 1.57794 
1 -0.408809 -3.30978 0.900592 
2 0.664767 -3.49067 1.59759 
1 0.703814 -3.12213 0.728042 
1 0.540303 -1.76183 0.852809 
2 0.860377 -2.367 0.285162 
1 -2.76959 -1.71122 0.710324 
2 -2.86342 -0.789614 0.933174 
1 -3.33183 -1.26244 1.52144 
1 -2.23643 -1.20775 1.51892 
1 -2.84183 -0.355372 1.75409 
1 -2.12608 -0.923729 0.473868 
2 -1.01337 -1.66352 0.443962 
1 -1.71806 -0.257003 1.63315 
1 -1.24444 -1.07815 1.05315 
2 -1.56676 -0.256001 0.672399 
1 -0.537063 -1.94026 1.13992 
1 -0.707464 -0.165555 0.932722 
1 -0.266586 -1.16496 0.454639 
1 0.120217 -1.15957 1.62282 
2 0.101391 -0.553219 0.946082 
1 0.653759 -0.700778 0.126751 
1 -3.65578 -0.374265 0.957692 
1 0.140325 -0.0473417 1.68971 
1 -3.03548 -0.432047 0.0808628 
1 -3.68835 -1.26348 0.235303 
1 1.15874 -1.68306 1.70609 
1 0.94657 -0.670873 1.14594 
2 1.2225 -1.27019 0.579376 
1 1.23813 -2.78674 1.6194 
1 1.5562 -2.12376 0.759444 
1 -1.17052 -0.799034 0.0200526 
1 1.62542 -3.17023 0.136698 
1 1.72299 -0.547667 0.215138 
1 1.86748 -0.197672 1.65701 
1 -3.49623 1.48793 -2.34291 
1 -3.31976 0.728892 -3.13391 
2 -2.71553 1.06285 -2.46392 
1 -2.79653 0.161111 -2.47312 
1 -2.06688 0.744961 -2.97687 
1 -2.54931 1.73642 -1.88696 
1 -2.88902 0.442116 -0.591777 
1 -2.95621 0.801942 -1.61342 
1 -2.56039 1.46427 -0.681249 
2 -2.33619 0.222196 -1.31437 
1 -3.48184 1.71659 -1.27247 
1 -3.57297 1.18353 -0.252711 
1 -2.6347 1.3469 -3.6549 
1 -1.93844 0.828284 -1.92427 
1 -1.89212 1.80036 -2.70697 
2 -1.82439 0.0888435 -2.3966 
1 -1.73767 0.714576 -0.858872 
1 -1.65413 1.69746 -1.3072 
1 -1.50697 1.51542 -0.157885 
1 -1.10846 1.06179 -2.75078 
2 -1.08874 1.16712 -1.76039 
1 -1.00547 0.308592 -1.99501 
1 -0.680952 1.44177 -0.957959 
1 -0.654299 0.321224 -0.985603 
1 -0.258031 1.06802 -2.1151 
1 -0.20746 1.44906 -3.13088 
2 -2.54979 0.158949 -3.35968 
1 -0.11646 0.831345 -0.193779 
1 -0.122137 0.362696 -2.91692 
1 0.235327 0.938084 -1.1975 
1 0.305237 1.79948 -0.489666 
1 0.79021 1.78836 -2.4635 
1 0.80969 0.770493 -2.08919 
1 0.884691 0.971761 -3.16603 
1 0.97896 0.910862 -0.413399 
2 1.04282 0.566157 -1.24108 
2 1.01508 0.104958 -0.0158379 
1 1.09851 1.54321 -1.38717 
2 1.49139 0.557761 -2.59852 
1 1.56003 0.0378441 -0.721861 
1 1.57262 1.71879 -3.6182 
1 0.0477774 0.0107941 -1.83957 
1 1.78342 1.37049 -2.51459 
1 1.82887 0.685436 -1.66255 
2 -3.1924 0.345808 1.38807 
2 -2.56255 0.996711 0.95094 
1 -3.2979 1.22867 1.39609 
1 -2.86962 1.64612 0.40948 
1 -3.26735 0.567594 0.537503 
1 -2.40165 0.657903 1.73 
1 -2.4159 1.7499 1.7818 
1 -2.23046 0.832707 0.167916 
1 -1.89062 1.61296 0.865805 
1 -1.54568 0.586081 1.00885 
1 -1.4759 1.25435 1.818 
2 -1.12629 1.25758 0.611744 
1 -2.43554 0.0188041 0.858164 
1 -0.513243 1.75517 0.217205 
1 -1.11179 0.517731 0.0547912 
1 -0.412396 0.8959 0.991108 
1 0.19271 1.67858 1.45997 
1 0.340195 0.226528 0.623521 
1 0.516245 1.28752 0.504392 
1 0.79176 0.820228 1.44517 
2 1.02829 0.0336569 1.7411 
1 1.3551 0.220714 0.799752 
2 1.37703 1.1131 0.605927 
1 1.9032 0.911775 1.31539 
1 1.91169 0.674696 0.0436001 
1 1.93681 0.67882 -3.35993 
2 1.95866 1.5822 -1.65544 
1 1.94628 -1.11933 1.08161 
1 1.98347 1.4182 -0.762794 
1 2.05934 -1.88199 -3.17223 
1 2.03686 -3.29256 -1.86279 
1 2.07256 -1.55469 -1.08042 
1 2.08694 -2.21166 -2.05072 
1 2.11885 -2.9241 -2.8532 
1 2.15556 1.60104 0.565274 
1 2.17368 -2.60337 -1.0175 
1 2.20782 -0.314124 -1.48768 
1 2.17917 -2.99215 1.05683 
1 2.18287 -2.02532 1.63549 
1 -3.72169 -2.06965 0.94508 
2 3.66647 -1.97834 -0.902163 
1 3.15991 -2.76398 -3.12659 
2 2.8014 -2.68206 -2.29903 
2 2.51681 -3.13785 -0.0224609 
2 3.16128 -0.814838 -3.7311 
1 2.49384 -3.64335 -0.740739 
1 2.47855 -0.864056 -3.12858 
1 3.50097 -1.0012 -2.91567 
1 2.98635 -1.72941 -3.72395 
1 3.15181 -2.65571 -0.522107 
1 3.50925 -1.09213 -1.81689 
1 3.20869 -0.325626 -1.12566 
2 3.27915 -0.765116 -0.351059 
2 2.80931 -1.10252 -1.26045 
1 3.01156 -1.97945 -1.49928 
1 2.90666 -3.56869 -2.44798 
1 3.02109 -3.04933 -1.52606 
1 2.50789 -3.70524 -3.44381 
1 2.96283 -0.317782 -2.25868 
1 2.98285 -1.5756 -0.490664 
1 2.97442 -1.85134 -2.59475 
1 2.36246 -1.17711 -2.07075 
1 3.7012 -2.50667 -2.19363 
1 2.40777 -0.692263 -0.540318 
1 3.60695 -3.71447 -0.963273 
1 2.28508 -2.27272 -0.0132628 
2 3.40049 -1.18444 1.03961 
2 3.32679 -2.03552 0.150574 
1 3.30744 -3.617 0.0210641 
1 3.22092 -3.63823 1.11473 
1 2.86321 -0.611309 1.47114 
1 2.76105 -1.73107 0.776004 
1 3.10885 -2.62018 1.63879 
1 2.87728 -0.719098 0.419928 
1 3.05575 -2.75135 0.552376 
2 2.33634 -1.33404 0.102575 
2 2.56821 0.0316391 -0.0538225 
2 2.33946 1.45933 -3.27642 
1 3.0215 0.927963 -3.48307 
1 2.97596 1.61863 -2.68796 
1 3.59213 0.523827 -2.20505 
1 3.4745 0.0491187 -0.10247 
1 2.81143 1.26025 -1.64277 
2 2.85194 0.347027 -1.66158 
1 3.57879 0.658088 -1.11604 
1 2.56045 0.491827 -0.820143 
1 3.0501 1.69448 -0.657853 
1 2.56446 0.641713 -2.49442 
2 2.45694 0.0171209 -3.11794 
1 3.77867 1.66478 -3.46202 
1 3.32637 -0.00884276 -3.20571 
1 3.4237 0.32253 1.66171 
2 3.73873 1.31131 0.630098 
1 2.93782 0.912543 0.131786 
1 2.98027 1.12907 1.17509 
1 2.48623 0.173793 0.806828 
2 3.35089 0.385061 0.754736 
2 2.54822 0.361233 1.64954 
1 -2.90302 2.15464 -2.88777 
1 -2.6491 3.19441 -3.17248 
1 -2.48718 2.81109 -2.09226 
2 -3.234 2.26518 -1.9884 
1 -3.03439 3.17501 -0.370214 
1 -3.49598 2.81909 -1.34439 
1 -2.54143 2.44774 -1.09446 
1 -3.47878 2.23046 -0.29259 
1 -1.97354 3.27419 -0.756989 
1 -3.48012 2.97632 -2.44663 
1 -2.14221 2.30913 -3.6344 
1 -2.20574 2.37972 -0.0881536 
1 -3.58839 2.72826 -3.50467 
1 -2.76632 3.63712 -1.35747 
2 -1.98093 3.42608 -1.64845 
2 -1.41478 3.05971 -0.134773 
1 -1.59407 3.22451 -3.60258 
1 -1.52609 2.91112 -2.59486 
1 -1.49474 2.7101 -1.55701 
1 -1.16609 2.38119 -0.609992 
1 -1.0235 2.20964 -3.23627 
1 -0.905365 3.41115 -0.830943 
1 -0.933993 1.95581 -2.17438 
2 -0.750496 2.23295 -1.37196 
1 -0.568515 3.19907 -3.1162 
1 -0.470584 2.92603 -1.91298 
2 -0.225318 2.37771 -3.60563 
1 -0.120484 2.68954 -0.951581 
1 -0.0240703 2.40083 -2.7093 
1 0.0727851 1.94595 -1.65425 
2 0.0275801 3.4043 -0.435036 
1 0.176021 3.69417 -1.25797 
1 0.504741 3.35159 -2.77732 
1 0.56807 2.02221 -3.54225 
1 0.673136 2.86508 -1.76024 
2 0.66993 2.3049 -1.09305 
1 0.723723 2.85513 -0.342426 
2 1.01196 3.36105 -1.04018 
1 -1.19299 3.69745 -1.90923 
1 1.23681 2.66766 -3.05549 
2 1.28419 3.16256 -2.3165 
1 1.28419 1.86553 -0.00596442 
1 1.50826 2.41706 -0.911063 
1 1.60086 2.33068 -2.01852 
1 1.69893 3.29789 -0.323184 
1 1.7855 3.22384 -1.51876 
1 -2.39228 2.58219 0.996894 
1 -3.48942 3.1309 1.65424 
1 -3.13381 3.41408 0.687778 
2 -2.96727 2.60485 0.325028 
1 -3.43998 2.26802 1.00478 
1 -2.3205 3.61891 1.40527 
1 -2.1333 3.39749 0.299992 
2 -1.68176 3.13995 1.00404 
1 -1.53247 2.57461 1.68526 
1 -1.34164 2.4789 0.53071 
1 -1.17709 3.63139 1.51455 
1 -1.05844 3.54886 0.46936 
1 -0.828591 1.8745 1.25195 
1 -0.469756 2.92495 1.09833 
1 -0.450144 2.81761 0.0237385 
1 0.290451 3.43691 0.441591 
1 0.363969 2.35022 0.588426 
1 0.609082 3.10589 1.39813 
2 1.14506 3.60918 0.294345 
1 1.22039 1.84595 1.10188 
1 1.37969 2.78395 0.560808 
1 1.52246 3.70318 1.09156 
1 1.59484 2.78817 1.64043 
1 2.11641 3.29048 -2.53567 
1 2.10061 1.84896 1.70301 
1 2.17855 2.25743 -2.89862 
2 2.31829 2.97749 -0.862175 
1 2.29488 2.39672 -0.157373 
1 2.8318 2.08505 -3.71243 
1 3.02749 2.86497 -2.88787 
1 2.45545 2.25743 -1.33672 
1 3.16112 2.87 -0.591464 
1 3.31742 2.27639 -1.95773 
1 2.88866 3.23293 -1.61249 
2 2.50033 2.60014 -2.14761 
2 3.65293 2.21908 -2.7883 
1 3.71384 3.7251 -3.20699 
1 3.16577 1.922 0.404952 
1 2.43748 3.48737 1.63346 
2 3.14439 2.98735 1.35437 
1 3.37914 2.93156 0.497987 
1 2.41302 2.60791 0.941332 
1 2.44434 3.55855 0.439438 
1 3.13345 2.1139 1.55678 
1 -0.835989 0.400925 1.85084 
2 -0.0256237 0.840444 1.85385 
1 -0.801112 -0.728964 1.94434 
1 -3.37611 -2.23458 1.9331 
2 -2.73468 -2.88387 2.13668 
1 -3.44919 -3.04552 2.62619 
1 -2.29113 -2.10109 2.12647 
1 -2.32388 -2.87565 2.97866 
1 -3.02956 -2.08468 2.90339 
1 -1.88252 -3.12443 2.01598 
1 -1.1354 -2.60986 2.64207 
2 -1.03188 -3.43425 2.26436 
2 -0.996157 -2.02753 3.45554 
1 -1.81567 -1.89648 3.07508 
1 0.501343 -3.30929 2.48064 
1 -0.259398 -2.52686 3.22057 
2 -0.279686 -2.86429 2.35777 
1 0.659544 -2.30405 2.45162 
1 -0.460156 -3.56279 2.97522 
2 0.80651 -2.29208 3.32635 
1 -3.10919 -3.57564 3.49986 
1 -2.83507 -1.13898 2.49263 
1 -2.49305 -0.622589 3.39315 
2 -3.07588 -0.326516 2.74464 
1 -3.48633 -1.2562 3.40594 
2 -2.56127 -1.48515 3.30371 
1 -1.16917 -0.136984 2.75539 
1 -1.29155 -1.74721 1.94718 
1 -1.45785 -0.749944 3.60422 
1 -1.78758 -0.981175 2.51041 
1 -0.8424 -1.32809 2.91438 
1 -0.295267 -1.95534 2.24542 
1 -0.448988 -0.339384 3.58601 
1 0.227446 -1.58301 3.2007 
1 0.0122905 -0.68129 2.62432 
2 0.521815 -1.43092 2.37591 
1 0.566816 -3.16326 3.52961 
1 -1.54943 -3.61399 2.95218 
1 -1.41041 -2.80883 3.63572 
1 -2.25628 -0.031238 2.56694 
1 0.906545 -0.746908 3.21688 
1 1.04978 -0.749778 2.17079 
1 1.33669 -1.61381 2.78158 
1 1.4802 -2.81237 2.94105 
1 -3.56234 -2.64821 3.59892 
2 1.58012 -2.27165 2.24952 
2 -1.01118 -3.69437 3.68717 
1 1.74197 -0.246339 2.82691 
2 1.78439 -2.06079 3.42778 
2 1.7983 -3.31487 3.62773 
1 -2.92137 0.345454 3.35767 
1 -3.39585 1.23667 3.08562 
1 -3.26129 0.4543 2.34734 
2 -3.02602 1.32003 2.26934 
1 -2.28646 1.00541 2.7391 
1 -1.83515 0.298822 3.53949 
1 -1.58279 1.3953 3.72301 
2 -1.65357 0.462213 2.18186 
1 -1.22677 0.916077 2.81043 
1 -0.729632 0.699957 3.71986 
1 -0.660081 1.74348 3.34697 
1 -0.475372 1.5023 2.28884 
1 -0.254329 0.471774 2.73083 
1 0.23525 1.14532 3.41102 
1 0.524206 0.150509 3.6776 
1 0.600791 1.20532 2.42236 
1 0.716992 0.142312 2.60678 
2 0.916516 1.65387 3.16655 
1 1.2968 0.819193 3.26379 
2 1.32193 1.40058 1.8601 
1 1.54412 0.633898 2.24758 
1 1.63905 1.66613 2.64695 
2 3.81684 -1.4734 2.4786 
1 1.51878 3.74279 2.16706 
1 2.0735 -1.16956 3.39896 
1 2.13062 -1.09283 2.20845 
1 2.17882 -2.96038 2.1265 
2 2.23551 0.478546 2.88222 
1 3.36241 -2.18739 2.77409 
1 3.69501 -0.587622 2.21673 
1 2.58984 -0.125075 3.48719 
1 3.65681 -0.25901 3.24031 
1 2.70424 -0.12033 2.39225 
1 3.12334 -3.4979 2.22103 
2 2.76649 -2.85699 2.76557 
1 2.26874 -3.63976 2.93842 
1 2.32088 -2.04173 2.71531 
1 2.41063 -2.68324 3.56602 
1 3.02529 -1.10252 2.8698 
1 3.15755 -1.56269 1.86302 
1 3.23918 -3.38476 3.30305 
1 3.16877 0.639526 2.95204 
2 3.22691 1.48022 3.24489 
1 3.5025 1.3072 2.2027 
2 3.72488 0.545951 3.60851 
1 2.33822 1.24842 3.28601 
1 2.50518 1.01298 2.21864 
1 2.04977 2.90318 3.73192 
1 -0.160828 3.73257 1.89253 
1 -3.37221 2.15175 2.07191 
1 -2.6221 1.9748 2.84462 
1 -2.51474 2.77814 2.07532 
1 -2.79799 2.90085 3.26557 
1 -3.53805 3.35356 2.71969 
2 -2.21305 3.57166 3.31207 
1 -2.54205 3.7274 2.48919 
2 -3.02534 2.12156 3.63662 
1 -1.82235 2.87088 2.88708 
2 -1.77923 3.39609 2.14059 
1 -1.5145 1.9189 2.63001 
2 -1.37565 2.27977 3.42168 
1 -0.927975 3.12898 2.37541 
1 -0.733168 2.87546 3.35723 
2 -0.700407 2.30282 2.66049 
1 -0.134699 2.54204 2.01076 
2 -0.125646 3.07425 2.75664 
1 0.183103 2.2211 2.95777 
1 0.309316 3.13428 3.58815 
1 0.69077 3.11898 2.48124 
1 0.892417 2.16241 2.10255 
1 1.20608 2.49276 3.19871 
1 1.34795 3.5656 3.2219 
1 2.05456 2.8258 2.62571 
2 2.08763 2.14516 3.24857 
2 2.4297 2.62149 1.84649 
1 3.71966 2.23699 3.04856 
1 2.73895 1.9874 2.63207 
1 3.11828 2.90581 2.26303 
1 3.0406 3.04497 3.32769 
