ITEM: TIMESTEP
762
ITEM: NUMBER OF ATOMS
500
ITEM: BOX BOUNDS xy xz yz pp pp pp
-3.7345 3.8316 0.097097
-3.7345 3.7345 0
-3.7345 3.7345 0
ITEM: ATOMS type xu yu zu 
1 0.663052 -2.30317 2.44939 
1 -2.6833 -1.41421 -0.321821 
1 2.06357 -1.88412 -3.17467 
1 -0.315328 -0.197811 -0.0636641 
1 1.14453 -2.50465 -0.522268 
1 -1.54932 -3.61321 2.95412 
1 2.12182 3.29261 -2.53703 
1 -1.16458 -0.136968 2.75556 
1 2.21384 -0.311013 -1.4883 
1 -3.37311 -2.23436 1.93033 
1 1.22532 1.84587 1.1019 
1 -1.72618 -2.041 0.999977 
1 -1.1897 0.0121812 -3.06157 
1 2.05566 2.90306 3.73264 
1 -2.10114 -0.501958 -2.99736 
1 0.983465 0.909313 -0.412671 
1 1.05374 -0.749432 2.17032 
1 -1.22248 0.916075 2.81138 
1 -3.34847 -2.23102 -0.18918 
1 -2.76747 -1.7102 0.710585 
1 -3.49007 1.48796 -2.3425 
1 -2.19445 -1.38336 -1.29779 
1 2.10629 1.84839 1.70257 
1 -2.38627 2.58461 0.997147 
1 -2.54564 -2.3173 -3.61818 
1 1.46163 -3.38453 -0.977747 
1 -1.817 -1.89465 3.07421 
1 -0.674863 1.44438 -0.956612 
1 0.890453 0.971173 -3.16631 
1 -2.79188 0.162778 -2.47166 
1 3.05824 -2.74917 0.553411 
1 -2.61356 -2.65139 1.25893 
1 -1.16653 -0.799727 0.020666 
1 3.66252 -0.262097 3.24073 
1 3.33089 -0.00960261 -3.20665 
1 -2.22526 0.833394 0.169552 
1 -2.88342 0.442742 -0.590552 
1 -1.7838 -0.980126 2.50925 
1 -2.25157 -0.0305621 2.56811 
1 2.83669 2.08339 -3.71236 
1 3.01109 -1.97723 -1.49723 
1 -0.460316 -3.56236 2.97618 
1 0.0196902 -1.89239 -2.40398 
1 0.500325 -3.30779 2.48196 
1 0.867664 -0.0685833 -2.76169 
1 3.13901 2.11282 1.55636 
1 2.41204 -0.686763 -0.539755 
1 -2.4137 1.75024 1.781 
1 2.86647 -0.609111 1.46991 
1 0.654756 -0.703956 0.127015 
1 -1.10145 1.06191 -2.75123 
1 -1.49003 2.70948 -1.55808 
1 -3.04493 -0.97695 -2.38707 
1 -0.704262 -0.165526 0.933671 
1 2.48394 -0.866869 -3.1285 
1 -1.81659 2.87243 2.88665 
1 0.933274 -3.56658 -1.90007 
1 2.18026 -2.96144 2.12514 
1 0.897691 2.16289 2.1021 
1 -0.839478 -1.32808 2.91372 
1 -0.444518 2.81749 0.0228833 
1 0.188671 2.22097 2.95841 
1 1.83272 0.68663 -1.66285 
1 -3.36861 2.15416 2.0738 
1 0.567546 -3.16332 3.53084 
1 -3.11118 -3.57235 3.49878 
1 -1.64881 1.69737 -1.30622 
1 -3.35914 -3.29994 1.60307 
1 -0.256724 -2.52596 3.2193 
1 -0.583316 -1.84325 -0.314502 
1 -3.47635 2.97665 -2.44511 
1 -0.654823 1.74329 3.34718 
1 1.16277 -1.68193 1.70467 
1 1.41197 -1.07086 -2.8015 
1 0.609232 -3.46429 -0.356819 
1 1.35265 -3.70207 -3.18448 
1 -1.52673 2.57606 1.68666 
1 2.5083 -3.70612 -3.44407 
1 1.60594 2.33007 -2.0189 
1 -3.10425 -3.01131 -2.92274 
1 0.0164016 -0.680439 2.62361 
1 -1.29634 -3.43662 -2.93328 
1 1.94292 0.677557 -3.36068 
1 -1.01725 2.20784 -3.2352 
1 3.32197 2.27657 -1.95765 
1 -2.83774 -0.355145 1.75581 
1 -0.471249 1.50242 2.28876 
1 2.49298 -3.64121 -0.738285 
1 1.36101 0.22262 0.794623 
1 -3.19043 -0.40429 -3.31882 
1 -0.444258 -0.340118 3.58565 
1 -3.02977 -2.08612 2.9003 
1 2.18675 -2.02641 1.6343 
1 -1.05003 3.54982 0.47071 
1 0.721617 0.143067 2.60714 
1 -2.32419 -2.8756 2.97829 
1 2.70734 -0.120775 2.39182 
1 -0.508502 1.75528 0.218115 
1 -1.90892 -3.24487 -1.24618 
1 -2.05974 0.744761 -2.97452 
1 3.11233 -2.62057 1.64038 
1 0.506644 -1.71766 -0.23189 
1 -3.48387 -1.25973 3.40867 
1 1.30201 0.819023 3.26394 
1 -3.47162 2.23147 -0.293781 
1 2.98456 1.12961 1.17458 
1 0.796993 0.819634 1.44468 
1 -0.0186514 -2.49071 0.314782 
1 0.231072 -1.58247 3.19911 
1 2.18492 2.25737 -2.89758 
1 3.02839 0.928553 -3.48374 
1 3.70217 -2.5045 -2.1909 
1 2.13449 -1.09301 2.20761 
1 0.814105 0.768912 -2.08899 
1 -1.50244 1.5167 -0.157185 
1 3.69817 -0.586926 2.21645 
1 -2.54393 1.73675 -1.8856 
1 0.30634 -2.22504 -3.38034 
1 -2.76107 3.63715 -1.35558 
1 1.5978 -0.305713 -3.54519 
1 -2.48898 -0.626207 3.39205 
1 2.97702 -1.84916 -2.59457 
1 2.28704 -2.27192 -0.0127483 
1 2.26919 -3.64034 2.93712 
1 1.57895 1.7185 -3.61785 
1 2.1708 -2.60058 -1.017 
1 1.78919 1.37018 -2.5155 
1 -2.12473 3.39783 0.300079 
1 -1.10786 0.518148 0.0552359 
1 3.02932 -1.10374 2.86889 
1 2.74352 1.9871 2.63222 
1 -0.264154 -1.16691 0.456032 
1 -1.63829 -3.31838 -0.227732 
1 -0.117867 0.360822 -2.91539 
1 -0.921412 3.12967 2.37683 
1 -1.13483 -2.60906 2.64379 
1 0.0766872 -2.57341 -0.76874 
1 -1.73584 0.716104 -0.856338 
1 1.9482 -1.11983 1.0831 
1 -0.825101 1.87408 1.2522 
1 -2.53502 3.72799 2.48871 
1 2.29989 2.39672 -0.158114 
1 0.476459 -0.0158949 -0.780009 
1 -2.46405 -2.35337 -0.869801 
1 -2.2736 -3.66985 -2.42523 
1 -3.48325 3.133 1.65359 
1 2.1196 -2.92473 -2.85296 
1 2.16162 1.60233 0.566155 
1 1.53158 3.70232 1.09081 
1 -2.86515 1.64648 0.410039 
1 1.62507 -3.169 0.135762 
1 -3.43329 2.26779 1.0076 
1 2.59471 -0.127099 3.48667 
1 -0.79702 -0.729652 1.94452 
1 2.98445 -1.57257 -0.488065 
1 0.183896 3.69362 -1.25774 
1 -3.0305 -0.43198 0.0816931 
1 -1.87492 -2.53653 -2.79335 
1 -0.726783 2.87582 3.3586 
1 3.2181 -3.63786 1.11496 
1 2.96789 -0.318391 -2.25997 
1 -0.252832 1.06666 -2.11388 
1 -2.83162 -1.14042 2.4931 
1 -3.58288 2.72872 -3.50404 
1 2.36487 -1.17594 -2.06871 
1 3.72486 2.23541 3.05049 
1 1.48161 -2.81304 2.93968 
1 2.89521 3.23393 -1.61052 
1 3.23981 -3.38839 3.30212 
1 -2.53667 2.44875 -1.09367 
1 3.16687 2.87185 -0.588635 
1 -0.128748 2.54239 2.01154 
1 3.51198 -1.0924 -1.81564 
1 2.06052 2.82644 2.62622 
1 -0.461955 -0.951456 -1.6638 
1 -2.31252 3.62076 1.40543 
1 -2.22953 -3.34366 -3.46128 
1 1.28986 1.86461 -0.0065801 
1 -3.39031 1.23523 3.08802 
1 1.51299 2.41762 -0.912198 
1 0.197234 1.67871 1.4598 
1 -2.66926 -2.86397 -1.87224 
1 0.481645 -0.941259 -2.24306 
1 -3.02916 3.17684 -0.3688 
1 3.03266 2.86515 -2.88836 
1 1.18009 -2.4956 -1.57776 
1 -2.2029 2.38006 -0.0869562 
1 -2.9164 0.34314 3.35754 
1 2.56916 0.640655 -2.49495 
1 2.49117 0.176157 0.805421 
1 2.08945 -2.21067 -2.05062 
1 -3.33518 -0.204809 -1.62476 
1 1.35544 3.5655 3.22016 
1 0.0781991 1.9452 -1.65462 
1 -2.50983 2.77865 2.07535 
1 -0.292764 -1.95515 2.24439 
1 -1.16867 3.63153 1.5153 
1 -1.50943 1.91948 2.63169 
1 0.124431 -1.1597 1.62126 
1 -2.28245 1.00598 2.74008 
1 0.144295 -0.0474374 1.68964 
1 -0.491848 -3.33412 -0.205679 
1 -0.53508 -1.9426 1.13981 
1 -0.743569 -3.10263 -1.26746 
1 0.240495 0.937983 -1.19648 
1 -3.55095 -1.10429 -0.837001 
1 3.16017 -1.56128 1.85967 
1 -3.65204 -0.373264 0.957865 
1 -1.18833 3.69524 -1.91235 
1 0.95001 -0.666742 1.14532 
1 3.04581 3.0429 3.32706 
1 -2.55632 1.46552 -0.680305 
1 -0.928237 1.95458 -2.17308 
1 -3.47694 1.71689 -1.27249 
1 1.12158 -0.220955 -1.69621 
1 0.679266 2.86393 -1.75973 
1 2.87984 -0.718123 0.419183 
1 2.81627 1.26035 -1.64317 
1 -2.4833 2.81191 -2.09115 
1 -1.71123 -1.72939 -0.0677301 
1 -1.33667 2.48033 0.529435 
1 3.78476 1.66571 -3.46075 
1 -2.61811 1.97583 2.84551 
1 -2.12206 -0.92461 0.473938 
1 -2.33579 -2.55984 0.210869 
1 0.510728 3.35158 -2.77683 
1 1.24258 2.66709 -3.05583 
1 1.33968 -1.61363 2.78065 
1 0.528103 0.150774 3.67791 
1 -0.941576 -2.69466 -2.23128 
1 2.34372 1.24745 3.28563 
1 3.50735 1.3089 2.20578 
1 2.4442 3.48575 1.63514 
1 -0.0648387 -0.981251 -0.694442 
1 -0.433941 -0.654303 -2.71173 
1 -2.39759 0.657971 1.73086 
1 1.79307 3.22303 -1.52014 
1 -1.52365 2.90867 -2.59611 
1 0.382382 -0.834798 -3.35927 
1 2.07774 -1.17162 3.39863 
1 -0.408497 -3.30878 0.900686 
1 1.87058 -0.196909 1.65509 
1 0.729399 2.85375 -0.342537 
1 0.369855 2.34967 0.587766 
1 -2.66375 -1.33806 -3.30591 
1 3.16077 -2.76375 -3.12531 
1 3.36273 -2.18711 2.76522 
1 2.41978 2.60884 0.941498 
1 -3.25697 0.455311 2.34777 
1 1.70392 3.29759 -0.32321 
1 -3.29493 1.22832 1.39774 
1 -2.23297 -1.20718 1.51892 
1 -1.57707 1.39494 3.72419 
1 -1.88638 1.79971 -2.70525 
1 3.5967 0.524364 -2.20521 
1 1.98974 1.4205 -0.763866 
1 -0.311186 -3.29721 -3.38313 
1 2.99203 -1.73363 -3.72579 
1 -2.6289 1.34629 -3.65283 
1 -0.564426 3.19759 -3.11361 
1 0.344954 0.225663 0.624229 
1 -1.45322 -0.749094 3.60464 
1 1.13596 -2.12312 -2.5814 
1 -3.53018 3.35142 2.71933 
1 -3.3155 0.728495 -3.13441 
1 2.4605 2.25875 -1.33684 
1 -1.33516 -0.648001 -2.1755 
1 1.21178 2.49286 3.19889 
1 1.6012 2.78791 1.641 
1 3.4277 0.323792 1.66283 
1 1.2398 -2.78649 1.61763 
1 0.240848 1.14571 3.41005 
1 -2.43103 0.0185238 0.859331 
1 3.15209 -2.65411 -0.521939 
1 -3.56739 1.18475 -0.252483 
1 -1.41531 -2.8056 3.63638 
1 -1.28956 -1.74776 1.94672 
1 -3.26207 0.568515 0.538143 
1 0.3103 1.79902 -0.488548 
1 -2.80033 -2.05851 -2.50953 
1 1.54924 0.633832 2.2479 
1 -1.61039 -1.68614 -3.38195 
1 -0.723558 0.699505 3.72042 
1 0.521727 1.28679 0.504602 
1 -0.0176244 2.39994 -2.70931 
1 -1.74927 -3.15162 0.892925 
1 -0.982912 -1.60989 -2.48603 
1 1.55824 -2.12644 0.760493 
1 3.58424 0.658878 -1.11537 
1 2.51072 1.01179 2.21826 
1 3.12604 2.90353 2.26318 
1 2.41245 -2.68559 3.56505 
1 3.21382 -0.324185 -1.12534 
1 3.01958 -3.04714 -1.5259 
1 1.34969 -2.631 -3.49699 
1 -0.153451 3.73227 1.8936 
1 0.703782 -3.12355 0.728425 
1 -3.12554 3.41709 0.688365 
1 -2.61055 -0.515367 -0.877065 
1 -2.13607 2.30881 -3.63233 
1 -1.88148 -3.12455 2.01696 
1 -3.57499 -3.52199 -2.04607 
1 3.72198 3.72564 -3.2059 
1 2.98215 1.61731 -2.68738 
1 0.396244 -1.68496 -1.37177 
1 1.33368 -1.38952 -1.7959 
1 -0.407504 0.895638 0.991567 
1 0.315511 3.13404 3.58918 
1 -0.111955 0.830978 -0.192785 
1 2.76318 -1.72831 0.773519 
1 -3.49203 2.81927 -1.34318 
1 -0.899234 3.4109 -0.834007 
1 0.574326 2.02146 -3.54212 
1 -3.32847 -1.26127 1.52159 
1 0.796135 1.787 -2.46314 
1 1.52499 3.74378 2.1662 
1 -1.95506 -0.11017 -0.158642 
1 3.17198 1.92382 0.40446 
1 2.45201 3.55699 0.4361 
1 -2.95111 0.802422 -1.61244 
1 0.296495 3.43642 0.440853 
1 0.541847 -1.7665 0.853511 
1 -0.567473 -1.36106 -3.5118 
1 -0.6443 -2.00361 -1.47571 
1 -1.58906 3.22475 -3.6028 
1 1.10385 1.54225 -1.38715 
1 3.05608 1.69614 -0.658486 
1 1.12867 -1.60481 -3.65247 
1 -2.79067 2.90234 3.26859 
1 1.64447 1.66595 2.6466 
1 0.605824 1.206 2.42154 
1 -1.20816 -1.27689 -0.924476 
1 -0.463067 2.92284 1.0979 
1 -2.28917 -2.10153 2.12508 
1 1.91866 0.6777 0.0408293 
1 -0.999955 0.307325 -1.99637 
1 1.74601 -0.246989 2.82704 
1 -1.88575 1.61455 0.866167 
1 3.1236 -3.50047 2.2199 
1 0.910392 -0.746571 3.21668 
1 -1.16226 2.38251 -0.609886 
1 -0.199789 1.44752 -3.13017 
1 -3.37099 -3.0106 0.527695 
1 3.17444 0.637247 2.95168 
1 1.90241 -0.195482 -2.47947 
1 -2.72885 -3.31733 -0.398844 
1 1.06788 -0.918145 -0.860189 
1 -0.936743 -2.78778 1.63854 
1 -1.76912 -2.23776 -1.74999 
1 -2.01892 -1.3993 -2.40342 
1 2.90635 -3.56926 -2.44715 
1 -2.64531 3.19576 -3.17102 
1 3.4808 0.0500177 -0.101382 
1 -3.18856 -1.82765 -1.54958 
1 0.696654 3.12 2.48086 
1 3.30901 -3.61573 0.0224551 
1 2.94401 0.914431 0.130888 
1 1.53752 -1.55463 -0.166448 
1 3.38878 2.93242 0.499152 
1 -1.54162 0.586606 1.00971 
1 -1.24087 -1.07797 1.05397 
1 -1.93278 0.827519 -1.92221 
1 -3.68494 -1.2621 0.235151 
1 1.56428 0.0367769 -0.720978 
1 0.162248 -2.75378 -1.81838 
1 -0.464639 2.92524 -1.91335 
1 2.32199 -2.04339 2.71441 
1 -1.55464 -0.298023 -1.14633 
1 -0.651071 0.324502 -0.985554 
1 2.03633 -3.29205 -1.8623 
1 2.0742 -1.54943 -1.07633 
1 0.163548 -2.70342 1.57877 
1 3.60474 -3.71306 -0.963108 
1 -2.89727 2.15573 -2.88609 
1 -1.47283 1.25514 1.81916 
1 3.50756 -1.0021 -2.91716 
1 1.90677 0.911889 1.31518 
1 0.0521755 0.00904033 -1.83785 
1 -1.7138 -0.256511 1.63401 
1 -3.45062 -3.0463 2.62302 
1 -0.83181 0.401577 1.85139 
1 -0.249924 0.472026 2.73111 
1 -1.371 -2.4192 -0.7675 
1 -0.742131 -2.34571 -3.20881 
1 -3.72003 -2.0674 0.944986 
1 2.18203 -2.99505 1.05555 
1 1.7228 -0.553356 0.214449 
1 0.61571 3.10617 1.39747 
1 -0.11458 2.68901 -0.951997 
1 2.56532 0.493769 -0.82195 
1 -3.56896 -2.64458 3.5938 
1 0.615288 -3.05268 -2.78465 
1 -1.07895 -2.55944 0.323956 
1 -0.32134 -3.55299 -2.30524 
1 -1.83155 0.298773 3.54078 
1 -2.29499 -0.477835 -1.86361 
1 -3.44405 -2.77055 -1.15279 
1 1.38558 2.78317 0.560746 
1 -3.56818 -1.91975 -3.17815 
1 -1.96712 3.27358 -0.756755 
2 2.50497 2.60315 -2.14679 
2 3.74461 1.3128 0.630454 
2 1.32688 1.40042 1.85993 
2 -1.81925 0.0875546 -2.39487 
2 2.81188 -1.09978 -1.25889 
2 1.02009 3.35923 -1.03983 
2 1.38357 1.11508 0.603642 
2 0.104196 -0.553651 0.945071 
2 1.22336 -1.2725 0.583276 
2 -1.64932 0.462707 2.18274 
2 -1.40485 3.06378 -0.135655 
2 2.57659 0.0362097 -0.0547751 
2 -2.96427 2.60616 0.326868 
2 -1.03228 -3.43424 2.2658 
2 -1.36986 2.28143 3.42288 
2 -3.22925 2.2654 -1.98739 
2 -3.44591 -0.223007 -0.741393 
2 -3.18825 0.345717 1.38855 
2 3.23189 1.47883 3.24355 
2 -1.75239 -3.05145 -2.09608 
2 -0.694998 2.30325 2.6612 
2 3.33048 -2.03473 0.150351 
2 -2.5581 0.998509 0.952486 
2 -3.02233 1.32147 2.27101 
2 3.35603 0.38689 0.755212 
2 1.38859 -2.93683 -2.35048 
2 1.29048 3.16075 -2.31619 
2 3.65826 2.21944 -2.78738 
2 1.20489 -1.77923 -0.99574 
2 -1.26298 -0.92758 -3.01344 
2 2.51793 -3.137 -0.0189027 
2 -1.77211 3.39673 2.14018 
2 1.15189 3.60962 0.295271 
2 1.04735 0.564585 -1.24079 
2 2.76876 -2.85836 2.76421 
2 0.922185 1.65402 3.16623 
2 3.4036 -1.18335 1.03911 
2 3.16553 -0.817959 -3.73208 
2 -0.174795 -2.72846 -2.66779 
2 -1.12173 1.25742 0.61206 
2 0.628177 -1.52073 -2.91613 
2 2.80311 -2.68107 -2.30003 
2 -1.56329 -0.25652 0.673466 
2 0.394238 -0.704658 -1.39858 
2 -1.01189 -1.6642 0.444948 
2 -0.745183 2.23441 -1.37167 
2 -2.85911 -0.788797 0.934136 
2 -1.67396 3.14121 1.00499 
2 2.32508 2.97946 -0.861784 
2 -0.99596 -2.02799 3.45308 
2 -1.01147 -3.69608 3.68798 
2 2.46171 0.0144741 -3.11796 
2 2.34521 1.45814 -3.27544 
2 0.675006 2.30303 -1.0929 
2 0.0340349 3.40331 -0.435579 
2 -1.08287 1.16561 -1.75812 
2 1.79905 -3.31629 3.62648 
2 -3.01883 2.12215 3.63851 
2 -0.281018 -2.86425 2.35727 
2 -2.56494 -1.48893 3.30701 
2 3.66687 -1.97637 -0.90173 
2 -2.20704 3.57404 3.31151 
2 -0.219552 2.3764 -3.60519 
2 0.663617 -3.09448 -1.16799 
2 -2.54731 0.16353 -3.35699 
2 1.96409 1.58296 -1.65607 
2 -0.799562 -0.513351 -0.750493 
2 3.72999 0.542722 3.60841 
2 1.49662 0.557681 -2.59897 
2 -2.70914 1.0637 -2.46318 
2 -2.73424 -2.88375 2.13591 
2 3.81995 -1.47324 2.4758 
2 0.862699 -2.369 0.284509 
2 -3.60468 -1.66181 -2.35276 
2 2.23956 0.477824 2.88232 
2 -1.97613 3.426 -1.64865 
2 -0.0207028 0.840454 1.85397 
2 -3.07112 -0.32662 2.74261 
2 1.0152 0.101251 -0.0176854 
2 0.667394 -3.49133 1.59931 
2 3.15108 2.9867 1.35483 
2 -1.40188 -1.4252 -1.74808 
2 -2.33157 0.222159 -1.31383 
2 -1.919 -0.945207 -0.489304 
2 -2.97433 -0.989624 -1.51467 
2 -0.119219 3.07398 2.75795 
2 0.525519 -1.43001 2.37466 
2 2.09265 2.14506 3.24851 
2 2.43631 2.62008 1.84764 
2 2.33318 -1.32982 0.101995 
2 -2.57989 -3.3487 0.656724 
2 0.808381 -2.29241 3.32503 
2 1.78634 -2.06246 3.42656 
2 3.28305 -0.762883 -0.350816 
2 -3.60659 -0.282036 -2.50167 
2 2.55206 0.36017 1.64878 
2 1.58238 -2.27201 2.24787 
2 2.85928 0.347176 -1.66229 
2 1.03192 0.0342521 1.74324 
2 -3.57092 -3.08813 -0.341888 
