ITEM: TIMESTEP
702
ITEM: NUMBER OF ATOMS
500
ITEM: BOX BOUNDS xy xz yz pp pp pp
-3.7345 3.81666 0.082159
-3.7345 3.7345 0
-3.7345 3.7345 0
ITEM: ATOMS type xu yu zu 
1 0.658114 -2.30405 2.45162 
1 -2.68936 -1.41426 -0.32181 
1 2.05748 -1.88199 -3.17223 
1 -0.322783 -0.197726 -0.0652297 
1 1.14873 -2.50215 -0.519182 
1 -1.54955 -3.61399 2.95218 
1 2.10938 3.29048 -2.53567 
1 -1.17277 -0.136984 2.75539 
1 2.2044 -0.314124 -1.48768 
1 -3.37761 -2.23458 1.9331 
1 1.21481 1.84595 1.10188 
1 -1.73008 -2.04232 1.00153 
1 -1.19775 0.0125948 -3.0621 
1 2.04313 2.90318 3.73192 
1 -2.10777 -0.503627 -2.99682 
1 0.974315 0.910862 -0.413399 
1 1.04679 -0.749778 2.17079 
1 -1.23142 0.916077 2.81043 
1 -3.35262 -2.23224 -0.187578 
1 -2.77161 -1.71122 0.710324 
1 -3.50145 1.48793 -2.34291 
1 -2.20135 -1.38293 -1.29845 
1 2.09503 1.84896 1.70301 
1 -2.39859 2.58219 0.996894 
1 -2.54391 -2.31823 -3.61663 
1 1.46139 -3.38344 -0.976983 
1 -1.81751 -1.89648 3.07508 
1 -0.686128 1.44177 -0.957959 
1 0.879985 0.971761 -3.16603 
1 -2.80043 0.161111 -2.47312 
1 3.05477 -2.75135 0.552376 
1 -2.61662 -2.65163 1.25996 
1 -1.17345 -0.799034 0.0200526 
1 3.65333 -0.25901 3.24031 
1 3.32265 -0.00884276 -3.20571 
1 -2.23502 0.832707 0.167916 
1 -2.8932 0.442116 -0.591777 
1 -1.79034 -0.981175 2.51041 
1 -2.25998 -0.031238 2.56694 
1 2.82598 2.08505 -3.71243 
1 3.00981 -1.97945 -1.49928 
1 -0.460328 -3.56279 2.97522 
1 0.0132178 -1.8925 -2.40404 
1 0.500918 -3.30929 2.48064 
1 0.858634 -0.0680398 -2.76117 
1 3.1276 2.1139 1.55678 
1 2.40473 -0.692263 -0.540318 
1 -2.42139 1.7499 1.7818 
1 2.86009 -0.611309 1.47114 
1 0.650726 -0.700778 0.126751 
1 -1.11326 1.06179 -2.75078 
1 -1.50118 2.7101 -1.55701 
1 -3.05117 -0.977662 -2.38933 
1 -0.711033 -0.165555 0.932722 
1 2.47568 -0.864056 -3.12858 
1 -1.82895 2.87088 2.88708 
1 0.933993 -3.56533 -1.8996 
1 2.17805 -2.96038 2.1265 
1 0.88652 2.16241 2.10255 
1 -0.844807 -1.32809 2.91438 
1 -0.456696 2.81761 0.0237385 
1 0.177147 2.2211 2.95777 
1 1.82445 0.685436 -1.66255 
1 -3.3781 2.15175 2.07191 
1 0.566245 -3.16326 3.52961 
1 -3.10935 -3.57564 3.49986 
1 -1.65957 1.69746 -1.3072 
1 -3.35917 -3.30163 1.60646 
1 -0.260606 -2.52686 3.22057 
1 -0.584704 -1.84419 -0.314295 
1 -3.48683 2.97632 -2.44663 
1 -0.665559 1.74348 3.34697 
1 1.15669 -1.68306 1.70609 
1 1.40383 -1.06901 -2.80134 
1 0.60954 -3.46283 -0.356417 
1 1.35473 -3.70216 -3.18213 
1 -1.53878 2.57461 1.68526 
1 2.50786 -3.70524 -3.44381 
1 1.5948 2.33068 -2.01852 
1 -3.10161 -3.0166 -2.92083 
1 0.00923732 -0.68129 2.62432 
1 -1.29503 -3.43704 -2.93154 
1 1.9324 0.67882 -3.35993 
1 -1.02944 2.20964 -3.23627 
1 3.31141 2.27639 -1.95773 
1 -2.84521 -0.355372 1.75409 
1 -0.480609 1.5023 2.28884 
1 2.49374 -3.64335 -0.740739 
1 1.35114 0.220714 0.799752 
1 -3.19968 -0.405453 -3.31953 
1 -0.452383 -0.339384 3.58601 
1 -3.03121 -2.08468 2.90339 
1 2.18116 -2.02532 1.63549 
1 -1.06572 3.54886 0.46936 
1 0.713115 0.142312 2.60678 
1 -2.32474 -2.87565 2.97866 
1 2.70063 -0.12033 2.39225 
1 -0.518732 1.75517 0.217205 
1 -1.90968 -3.24374 -1.24509 
1 -2.07136 0.744961 -2.97687 
1 3.10774 -2.62018 1.63879 
1 0.507128 -1.71619 -0.231858 
1 -3.48881 -1.2562 3.40594 
1 1.29225 0.819193 3.26379 
1 -3.48474 2.23046 -0.29259 
1 2.97541 1.12907 1.17509 
1 0.787205 0.820228 1.44517 
1 -0.0208608 -2.48893 0.316933 
1 0.225295 -1.58301 3.2007 
1 2.17255 2.25743 -2.89862 
1 3.01684 0.927963 -3.48307 
1 3.69997 -2.50667 -2.19363 
1 2.12798 -1.09283 2.20845 
1 0.805185 0.770493 -2.08919 
1 -1.51222 1.51542 -0.157885 
1 3.69186 -0.587622 2.21673 
1 -2.55478 1.73642 -1.88696 
1 0.302636 -2.22676 -3.37923 
1 -2.77369 3.63712 -1.35747 
1 1.5892 -0.304455 -3.54507 
1 -2.49616 -0.622589 3.39315 
1 2.97253 -1.85134 -2.59475 
1 2.28362 -2.27272 -0.0132628 
1 2.26864 -3.63976 2.93842 
1 1.56717 1.71879 -3.6182 
1 2.17254 -2.60337 -1.0175 
1 1.77831 1.37049 -2.51459 
1 -2.14043 3.39749 0.299992 
1 -1.11604 0.517731 0.0547912 
1 3.02266 -1.10252 2.8698 
1 2.73322 1.9874 2.63207 
1 -0.269155 -1.16496 0.454639 
1 -1.63953 -3.31759 -0.226795 
1 -0.126234 0.362696 -2.91692 
1 -0.934838 3.12898 2.37541 
1 -1.13653 -2.60986 2.64207 
1 0.0794878 -2.57177 -0.767293 
1 -1.74212 0.714576 -0.858872 
1 1.94367 -1.11933 1.08161 
1 -0.8342 1.8745 1.25195 
1 -2.54951 3.7274 2.48919 
1 2.28875 2.39672 -0.157373 
1 0.469193 -0.0144627 -0.779743 
1 -2.46678 -2.35253 -0.869114 
1 -2.27175 -3.66953 -2.42462 
1 -3.49629 3.1309 1.65424 
1 2.11804 -2.9241 -2.8532 
1 2.15023 1.60104 0.565274 
1 1.51503 3.70318 1.09156 
1 -2.875 1.64612 0.40948 
1 1.62486 -3.17023 0.136698 
1 -3.44598 2.26802 1.00478 
1 2.58623 -0.125075 3.48719 
1 -0.804118 -0.728964 1.94434 
1 2.98069 -1.5756 -0.490664 
1 0.168592 3.69417 -1.25797 
1 -3.03878 -0.432047 0.0808628 
1 -1.87585 -2.53738 -2.79088 
1 -0.739778 2.87546 3.35723 
1 3.22082 -3.63823 1.11473 
1 2.95941 -0.317782 -2.25868 
1 -0.262833 1.06802 -2.1151 
1 -2.83767 -1.13898 2.49263 
1 -3.59485 2.72826 -3.50467 
1 2.3599 -1.17711 -2.07075 
1 3.71369 2.23699 3.04856 
1 1.47927 -2.81237 2.94105 
1 2.8817 3.23293 -1.61249 
1 3.23883 -3.38476 3.30305 
1 -2.54761 2.44774 -1.09446 
1 3.15452 2.87 -0.591464 
1 -0.140976 2.54204 2.01076 
1 3.5066 -1.09213 -1.81689 
1 2.048 2.8258 2.62571 
1 -0.472828 -0.945728 -1.65897 
1 -2.32786 3.61891 1.40527 
1 -2.22712 -3.3442 -3.46187 
1 1.27859 1.86553 -0.00596442 
1 -3.40082 1.23667 3.08562 
1 1.50211 2.41706 -0.911063 
1 0.187297 1.67858 1.45997 
1 -2.66865 -2.86223 -1.87273 
1 0.473635 -0.941398 -2.2416 
1 -3.0413 3.17501 -0.370214 
1 3.02089 2.86497 -2.88787 
1 1.1778 -2.4929 -1.57473 
1 -2.21185 2.37972 -0.0881536 
1 -2.92545 0.345454 3.35767 
1 2.56008 0.641713 -2.49442 
1 2.48232 0.173793 0.806828 
1 2.08541 -2.21166 -2.05072 
1 -3.34305 -0.204998 -1.62476 
1 1.34065 3.5656 3.2219 
1 0.0671047 1.94595 -1.65425 
1 -2.52125 2.77814 2.07532 
1 -0.297047 -1.95534 2.24542 
1 -1.18445 3.63139 1.51455 
1 -1.52015 1.9189 2.63001 
1 0.117642 -1.15957 1.62282 
1 -2.2912 1.00541 2.7391 
1 0.136638 -0.0473417 1.68971 
1 -0.490857 -3.33294 -0.204087 
1 -0.538857 -1.94026 1.13992 
1 -0.743122 -3.1003 -1.26324 
1 0.230654 0.938084 -1.1975 
1 -3.55715 -1.10546 -0.837986 
1 3.15538 -1.56269 1.86302 
1 -3.65914 -0.374265 0.957692 
1 -1.20043 3.69745 -1.90923 
1 0.943507 -0.670873 1.14594 
1 3.03382 3.04497 3.32769 
1 -2.56559 1.46427 -0.681249 
1 -0.939684 1.95581 -2.17438 
1 -3.48729 1.71659 -1.27247 
1 1.11299 -0.219127 -1.69668 
1 0.666537 2.86508 -1.76024 
1 2.87426 -0.719098 0.419928 
1 2.80644 1.26025 -1.64277 
1 -2.49372 2.81109 -2.09226 
1 -1.71758 -1.73003 -0.0646587 
1 -1.34785 2.4789 0.53071 
1 3.77328 1.66478 -3.46202 
1 -2.62781 1.9748 2.84462 
1 -2.12889 -0.923729 0.473868 
1 -2.34018 -2.56169 0.211927 
1 0.497655 3.35159 -2.77732 
1 1.23041 2.66766 -3.05549 
1 1.33457 -1.61381 2.78158 
1 0.520321 0.150509 3.6776 
1 -0.940879 -2.69506 -2.22857 
1 2.33324 1.24842 3.28601 
1 3.49746 1.3072 2.2027 
1 2.43026 3.48737 1.63346 
1 -0.0678875 -0.982097 -0.692918 
1 -0.440407 -0.652466 -2.7102 
1 -2.40604 0.657903 1.73 
1 1.77854 3.22384 -1.51876 
1 -1.53273 2.91112 -2.59486 
1 0.375345 -0.834444 -3.35894 
1 2.07093 -1.16956 3.39896 
1 -0.409234 -3.30978 0.900592 
1 1.86395 -0.197672 1.65701 
1 0.717133 2.85513 -0.342426 
1 0.357884 2.35022 0.588426 
1 -2.66871 -1.33829 -3.30888 
1 3.15894 -2.76398 -3.12659 
1 3.36086 -2.18739 2.77409 
1 2.40667 2.60791 0.941332 
1 -3.26547 0.4543 2.34734 
1 1.6919 3.29789 -0.323184 
1 -3.30287 1.22867 1.39609 
1 -2.23896 -1.20775 1.51892 
1 -1.58792 1.3953 3.72301 
1 -1.89766 1.80036 -2.70697 
1 3.58788 0.523827 -2.20505 
1 1.97832 1.4182 -0.762794 
1 -0.312308 -3.29376 -3.38384 
1 2.98435 -1.72941 -3.72395 
1 -2.63978 1.3469 -3.6549 
1 -0.575449 3.19907 -3.1162 
1 0.336234 0.226528 0.623521 
1 -1.46083 -0.749944 3.60422 
1 1.13006 -2.12117 -2.57944 
1 -3.54513 3.35356 2.71969 
1 -3.32422 0.728892 -3.13391 
1 2.44946 2.25743 -1.33672 
1 -1.34339 -0.646119 -2.17786 
1 1.19986 2.49276 3.19871 
1 1.58831 2.78817 1.64043 
1 3.41964 0.32253 1.66171 
1 1.23718 -2.78674 1.6194 
1 0.23037 1.14532 3.41102 
1 -2.43929 0.0188041 0.858164 
1 3.15073 -2.65571 -0.522107 
1 -3.57789 1.18353 -0.252711 
1 -1.41134 -2.80883 3.63572 
1 -1.29353 -1.74721 1.94718 
1 -3.27165 0.567594 0.537503 
1 0.299703 1.79948 -0.489666 
1 -2.8061 -2.0599 -2.51366 
1 1.53976 0.633898 2.24758 
1 -1.61487 -1.68644 -3.38041 
1 -0.734067 0.699957 3.71986 
1 0.511223 1.28752 0.504392 
1 -0.0302057 2.40083 -2.7093 
1 -1.75165 -3.15256 0.89261 
1 -0.989171 -1.60862 -2.48335 
1 1.55459 -2.12376 0.759444 
1 3.5744 0.658088 -1.11604 
1 2.50043 1.01298 2.21864 
1 3.11164 2.90581 2.26303 
1 2.40958 -2.68324 3.56602 
1 3.20528 -0.325626 -1.12566 
1 3.0204 -3.04933 -1.52606 
1 1.34673 -2.63012 -3.49551 
1 -0.168295 3.73257 1.89253 
1 0.703201 -3.12213 0.728042 
1 -3.14096 3.41408 0.687778 
1 -2.61836 -0.515737 -0.877595 
1 -2.14826 2.30913 -3.6344 
1 -1.88313 -3.12443 2.01598 
1 -3.57539 -3.52338 -2.04517 
1 3.70638 3.7251 -3.20699 
1 2.97061 1.61863 -2.68796 
1 0.391719 -1.68299 -1.37281 
1 1.32873 -1.38641 -1.7957 
1 -0.417027 0.8959 0.991108 
1 0.302447 3.13428 3.58815 
1 -0.121025 0.831345 -0.193779 
1 2.75905 -1.73107 0.776004 
1 -3.50254 2.81909 -1.34439 
1 -0.912511 3.41115 -0.830943 
1 0.562313 2.02221 -3.54225 
1 -3.3343 -1.26244 1.52144 
1 0.784687 1.78836 -2.4635 
1 1.5113 3.74279 2.16706 
1 -1.9629 -0.110219 -0.159715 
1 3.16012 1.922 0.404952 
1 2.43705 3.55855 0.439438 
1 -2.96074 0.801942 -1.61342 
1 0.28328 3.43691 0.441591 
1 0.53833 -1.76183 0.852809 
1 -0.573464 -1.35971 -3.51048 
1 -0.646829 -2.0017 -1.47404 
1 -1.60103 3.22451 -3.60258 
1 1.09323 1.54321 -1.38717 
1 3.04467 1.69448 -0.657853 
1 1.12322 -1.60437 -3.65169 
1 -2.80462 2.90085 3.26557 
1 1.63365 1.66613 2.64695 
1 0.595851 1.20532 2.42236 
1 -1.21591 -1.28147 -0.921383 
1 -0.476415 2.92495 1.09833 
1 -2.29276 -2.10109 2.12647 
1 1.90728 0.674696 0.0436001 
1 -1.00951 0.308592 -1.99501 
1 1.73849 -0.246339 2.82691 
1 -1.89597 1.61296 0.865805 
1 3.1231 -3.4979 2.22103 
1 0.903557 -0.746908 3.21688 
1 -1.1722 2.38119 -0.609992 
1 -0.212643 1.44906 -3.13088 
1 -3.37391 -3.01333 0.528625 
1 3.1644 0.639526 2.95204 
1 1.89438 -0.194397 -2.47901 
1 -2.72997 -3.31798 -0.400611 
1 1.06122 -0.916205 -0.860993 
1 -0.938816 -2.78736 1.6366 
1 -1.76835 -2.23584 -1.74829 
1 -2.0258 -1.40029 -2.40242 
1 2.90649 -3.56869 -2.44798 
1 -2.65603 3.19441 -3.17248 
1 3.47071 0.0491187 -0.10247 
1 -3.19318 -1.82806 -1.55223 
1 0.683917 3.11898 2.48124 
1 3.30732 -3.617 0.0210641 
1 2.93318 0.912543 0.131786 
1 1.53829 -1.5493 -0.168907 
1 3.37247 2.93156 0.497987 
1 -1.55 0.586081 1.00885 
1 -1.2471 -1.07815 1.05315 
1 -1.943 0.828284 -1.92427 
1 -3.69082 -1.26348 0.235303 
1 1.55625 0.0378441 -0.721861 
1 0.161217 -2.75278 -1.81784 
1 -0.477244 2.92603 -1.91298 
1 2.31919 -2.04173 2.71531 
1 -1.5614 -0.302251 -1.14589 
1 -0.658354 0.321224 -0.985603 
1 2.03641 -3.29256 -1.86279 
1 2.07038 -1.55469 -1.08042 
1 0.161335 -2.70153 1.57794 
1 3.60693 -3.71447 -0.963273 
1 -2.90891 2.15464 -2.88777 
1 -1.48089 1.25435 1.818 
1 3.49824 -1.0012 -2.91567 
1 1.89855 0.911775 1.31539 
1 0.0440321 0.0107941 -1.83957 
1 -1.72154 -0.257003 1.63315 
1 -3.44988 -3.04552 2.62619 
1 -0.840125 0.400925 1.85084 
1 -0.258535 0.471774 2.73083 
1 -1.37397 -2.41823 -0.765075 
1 -0.745778 -2.34395 -3.20533 
1 -3.72336 -2.06965 0.94508 
1 2.17843 -2.99215 1.05683 
1 1.71981 -0.547667 0.215138 
1 0.602242 3.10589 1.39813 
1 -0.126908 2.68954 -0.951581 
1 2.55622 0.491827 -0.820143 
1 -3.56342 -2.64821 3.59892 
1 0.61543 -3.05307 -2.78381 
1 -1.08098 -2.55894 0.32553 
1 -0.319798 -3.55282 -2.30621 
1 -1.83918 0.298822 3.53949 
1 -2.30256 -0.477429 -1.86398 
1 -3.44464 -2.77107 -1.15329 
1 1.37317 2.78395 0.560808 
1 -3.57438 -1.91556 -3.18117 
1 -1.98055 3.27419 -0.756989 
2 2.494 2.60014 -2.14761 
2 3.73368 1.31131 0.630098 
2 1.31679 1.40058 1.8601 
2 -1.82822 0.0888435 -2.3966 
2 2.80668 -1.10252 -1.26045 
2 1.00486 3.36105 -1.04018 
2 1.37219 1.1131 0.605927 
2 0.0982099 -0.553219 0.946082 
2 1.22003 -1.27019 0.579376 
2 -1.65777 0.462213 2.18186 
2 -1.42157 3.05971 -0.134773 
2 2.56444 0.0316391 -0.0538225 
2 -2.97361 2.60485 0.325028 
2 -1.03218 -3.43425 2.26436 
2 -1.38167 2.27977 3.42168 
2 -3.24 2.26518 -1.9884 
2 -3.45453 -0.224341 -0.741491 
2 -3.19648 0.345808 1.38807 
2 3.22169 1.48022 3.24489 
2 -1.7518 -3.05072 -2.09365 
2 -0.706444 2.30282 2.66049 
2 3.32509 -2.03552 0.150574 
2 -2.56728 0.996711 0.95094 
2 -3.03108 1.32003 2.26934 
2 3.34677 0.385061 0.754736 
2 1.38855 -2.93223 -2.34732 
2 1.27729 3.16256 -2.3165 
2 3.64698 2.21908 -2.7883 
2 1.19903 -1.7768 -0.994566 
2 -1.2677 -0.927318 -3.01433 
2 2.51621 -3.13785 -0.0224609 
2 -1.78636 3.39609 2.14059 
2 1.13771 3.60918 0.294345 
2 1.03852 0.566157 -1.24108 
2 2.76562 -2.85699 2.76557 
2 0.911127 1.65387 3.16655 
2 3.39794 -1.18444 1.03961 
2 3.15836 -0.814838 -3.7311 
2 -0.175266 -2.72863 -2.66829 
2 -1.13128 1.25758 0.611744 
2 0.621375 -1.52037 -2.91594 
2 2.80035 -2.68206 -2.29903 
2 -1.57024 -0.256001 0.672399 
2 0.386154 -0.701771 -1.39821 
2 -1.01544 -1.66352 0.443962 
2 -0.756463 2.23295 -1.37196 
2 -2.86637 -0.789614 0.933174 
2 -1.68863 3.13995 1.00404 
2 2.31158 2.97749 -0.862175 
2 -0.997864 -2.02753 3.45554 
2 -1.01122 -3.69437 3.68717 
2 2.45319 0.0171209 -3.11794 
2 2.33426 1.45933 -3.27642 
2 0.66389 2.3049 -1.09305 
2 0.0204413 3.4043 -0.435036 
2 -1.09365 1.16712 -1.76039 
2 1.79788 -3.31487 3.62773 
2 -3.0312 2.12156 3.63662 
2 -0.280557 -2.86429 2.35777 
2 -2.56352 -1.48515 3.30371 
2 3.66472 -1.97834 -0.902163 
2 -2.22036 3.57166 3.31207 
2 -0.23143 2.37771 -3.60563 
2 0.663111 -3.09467 -1.16817 
2 -2.55368 0.158949 -3.35968 
2 1.95334 1.5822 -1.65544 
2 -0.804221 -0.518143 -0.753717 
2 3.7206 0.545951 3.60851 
2 1.48709 0.557761 -2.59852 
2 -2.72033 1.06285 -2.46392 
2 -2.73553 -2.88387 2.13668 
2 3.81458 -1.4734 2.4786 
2 0.85901 -2.367 0.285162 
2 -3.61068 -1.66259 -2.35396 
2 2.2313 0.478546 2.88222 
2 -1.98809 3.42608 -1.64845 
2 -0.0301986 0.840444 1.85385 
2 -3.07929 -0.326516 2.74464 
2 1.01124 0.104958 -0.0158379 
2 0.664524 -3.49067 1.59759 
2 3.13767 2.98735 1.35437 
2 -1.40839 -1.4198 -1.74671 
2 -2.34015 0.222196 -1.31437 
2 -1.92612 -0.945714 -0.489099 
2 -2.98145 -0.98952 -1.51648 
2 -0.132454 3.07425 2.75664 
2 0.519512 -1.43092 2.37591 
2 2.08176 2.14516 3.24857 
2 2.42335 2.62149 1.84649 
2 2.33394 -1.33404 0.102575 
2 -2.58245 -3.35027 0.658187 
2 0.805068 -2.29208 3.32635 
2 1.78272 -2.06079 3.42778 
2 3.27618 -0.765116 -0.351059 
2 -3.61461 -0.282815 -2.50092 
2 2.54412 0.361233 1.64954 
2 1.57865 -2.27165 2.24952 
2 2.84786 0.347027 -1.66158 
2 1.02452 0.0336569 1.7411 
2 -3.57193 -3.08917 -0.342061 
