ITEM: TIMESTEP
763
ITEM: NUMBER OF ATOMS
500
ITEM: BOX BOUNDS xy xz yz pp pp pp
-3.7345 3.83907 0.104566
-3.7345 3.7345 0
-3.7345 3.7345 0
ITEM: ATOMS type xu yu zu 
1 -2.79865 -2.05851 -2.50953 
1 -3.10353 -3.01131 -2.92274 
1 -2.54423 -2.3173 -3.61818 
1 -2.22914 -3.34366 -3.46128 
1 -1.87372 -2.53653 -2.79335 
1 -0.940536 -2.69466 -2.23128 
2 -1.7517 -3.05145 -2.09608 
1 -0.740743 -2.34571 -3.20881 
1 0.307849 -2.22504 -3.38034 
1 -0.310749 -3.29721 -3.38313 
2 -0.173789 -2.72846 -2.66779 
1 0.615969 -3.05268 -2.78465 
1 -3.1871 -0.40429 -3.31882 
1 -3.04218 -0.97695 -2.38707 
1 -2.66135 -1.33806 -3.30591 
1 -2.29174 -0.477835 -1.86361 
1 -2.09791 -0.501958 -2.99736 
1 -2.01658 -1.3993 -2.40342 
1 -0.980788 -1.60989 -2.48603 
1 -1.60834 -1.68614 -3.38195 
2 -1.26017 -0.92758 -3.01344 
1 -1.33207 -0.648001 -2.1755 
1 0.0215323 -1.89239 -2.40398 
1 0.385282 -0.834798 -3.35927 
2 0.630391 -1.52073 -2.91613 
1 -0.430861 -0.654303 -2.71173 
1 0.484438 -0.941259 -2.24306 
1 -0.5651 -1.36106 -3.5118 
1 -2.66839 -2.86397 -1.87224 
1 -3.44309 -2.77055 -1.15279 
1 -2.72843 -3.31733 -0.398844 
1 -2.46267 -2.35337 -0.869801 
1 -3.34697 -2.23102 -0.18918 
2 -3.57027 -3.08813 -0.341888 
1 -1.63787 -3.31838 -0.227732 
1 -1.76763 -2.23776 -1.74999 
1 -1.90843 -3.24487 -1.24618 
1 -1.36969 -2.4192 -0.7675 
1 -0.742937 -3.10263 -1.26746 
1 -0.642569 -2.00361 -1.47571 
1 0.163229 -2.75378 -1.81838 
1 0.0778483 -2.57341 -0.76874 
1 -0.491447 -3.33412 -0.205679 
1 0.609502 -3.46429 -0.356819 
2 0.664257 -3.09448 -1.16799 
1 -3.18666 -1.82765 -1.54958 
1 -3.54832 -1.10429 -0.837001 
1 -3.33165 -0.204809 -1.62476 
2 -2.97159 -0.989624 -1.51467 
1 -2.60733 -0.515367 -0.877065 
1 -2.68098 -1.41421 -0.321821 
2 -3.4424 -0.223007 -0.741393 
1 -2.1921 -1.38336 -1.29779 
2 -1.39957 -1.4252 -1.74808 
1 -1.5512 -0.298023 -1.14633 
2 -1.91621 -0.945207 -0.489304 
1 -1.2057 -1.27689 -0.924476 
2 -0.796341 -0.513351 -0.750493 
1 -0.581425 -1.84325 -0.314502 
1 -0.459172 -0.951456 -1.6638 
1 0.398294 -1.68496 -1.37177 
1 -0.0620855 -0.981251 -0.694442 
2 0.397268 -0.704658 -1.39858 
2 -3.60261 -1.66181 -2.35276 
1 -1.95144 -0.11017 -0.158642 
2 -3.60314 -0.282036 -2.50167 
1 -1.29604 -3.43662 -2.93328 
1 -3.57477 -3.52199 -2.04607 
1 -2.27354 -3.66985 -2.42523 
1 -0.311792 -0.197811 -0.0636641 
1 0.508661 -1.71766 -0.23189 
1 -0.321158 -3.55299 -2.30524 
1 0.87133 -0.0685833 -2.76169 
1 0.933442 -3.56658 -1.90007 
1 -3.56636 -1.91975 -3.17815 
1 1.12509 -0.220955 -1.69621 
1 1.1308 -1.60481 -3.65247 
1 1.13757 -2.12312 -2.5814 
1 1.0707 -0.918145 -0.860189 
1 1.18133 -2.4956 -1.57776 
2 1.20684 -1.77923 -0.99574 
1 1.14576 -2.50465 -0.522268 
1 1.35079 -2.631 -3.49699 
1 1.41464 -1.07086 -2.8015 
1 1.33602 -1.38952 -1.7959 
1 1.35268 -3.70207 -3.18448 
2 1.38939 -2.93683 -2.35048 
1 1.46198 -3.38453 -0.977747 
1 1.60123 -0.305713 -3.54519 
1 1.5397 -1.55463 -0.166448 
1 0.480178 -0.0158949 -0.780009 
1 -1.18596 0.0121812 -3.06157 
1 -1.70922 -1.72939 -0.0677301 
1 1.90595 -0.195482 -2.47947 
1 -3.3587 -3.29994 1.60307 
1 -3.37026 -3.0106 0.527695 
1 -2.61248 -2.65139 1.25893 
2 -2.57951 -3.3487 0.656724 
1 -2.33461 -2.55984 0.210869 
1 -1.74868 -3.15162 0.892925 
1 -1.07777 -2.55944 0.323956 
1 -0.935796 -2.78778 1.63854 
1 -1.72448 -2.041 0.999977 
1 -0.0174076 -2.49071 0.314782 
1 0.164579 -2.70342 1.57877 
1 -0.408071 -3.30878 0.900686 
2 0.667637 -3.49133 1.59931 
1 0.704393 -3.12355 0.728425 
1 0.543815 -1.7665 0.853511 
2 0.864064 -2.369 0.284509 
1 -2.76545 -1.7102 0.710585 
2 -2.85616 -0.788797 0.934136 
1 -3.326 -1.26127 1.52159 
1 -2.23044 -1.20718 1.51892 
1 -2.83436 -0.355145 1.75581 
1 -2.11925 -0.92461 0.473938 
2 -1.00982 -1.6642 0.444948 
1 -1.71032 -0.256511 1.63401 
1 -1.23821 -1.07797 1.05397 
2 -1.55981 -0.25652 0.673466 
1 -0.533288 -1.9426 1.13981 
1 -0.700693 -0.165526 0.933671 
1 -0.261587 -1.16691 0.456032 
1 0.127006 -1.1597 1.62126 
2 0.107377 -0.553651 0.945071 
1 0.657786 -0.703956 0.127015 
1 -3.64868 -0.373264 0.957865 
1 0.147982 -0.0474374 1.68964 
1 -3.02719 -0.43198 0.0816931 
1 -3.68246 -1.2621 0.235151 
1 1.16482 -1.68193 1.70467 
1 0.953077 -0.666742 1.14532 
2 1.22582 -1.2725 0.583276 
1 1.24075 -2.78649 1.61763 
1 1.55985 -2.12644 0.760493 
1 -1.1636 -0.799727 0.020666 
1 1.62564 -3.169 0.135762 
1 1.72598 -0.553356 0.214449 
1 1.87412 -0.196909 1.65509 
1 -3.48485 1.48796 -2.3425 
1 -3.31103 0.728495 -3.13441 
2 -2.70434 1.0637 -2.46318 
1 -2.78799 0.162778 -2.47166 
1 -2.05526 0.744761 -2.97452 
1 -2.53846 1.73675 -1.8856 
1 -2.87924 0.442742 -0.590552 
1 -2.94657 0.802422 -1.61244 
1 -2.55112 1.46552 -0.680305 
2 -2.32761 0.222159 -1.31383 
1 -3.47148 1.71689 -1.27249 
1 -3.56247 1.18475 -0.252483 
1 -2.62382 1.34629 -3.65283 
1 -1.92822 0.827519 -1.92221 
1 -1.88085 1.79971 -2.70525 
2 -1.81543 0.0875546 -2.39487 
1 -1.73138 0.716104 -0.856338 
1 -1.64338 1.69737 -1.30622 
1 -1.49719 1.5167 -0.157185 
1 -1.09666 1.06191 -2.75123 
2 -1.07796 1.16561 -1.75812 
1 -0.995913 0.307325 -1.99637 
1 -0.669684 1.44438 -0.956612 
1 -0.647012 0.324502 -0.985554 
1 -0.248031 1.06666 -2.11388 
1 -0.194607 1.44752 -3.13017 
2 -2.54341 0.16353 -3.35699 
1 -0.10739 0.830978 -0.192785 
1 -0.113772 0.360822 -2.91539 
1 0.245168 0.937983 -1.19648 
1 0.315833 1.79902 -0.488548 
1 0.801657 1.787 -2.46314 
1 0.818608 0.768912 -2.08899 
1 0.895158 0.971173 -3.16631 
1 0.988109 0.909313 -0.412671 
2 1.05165 0.564585 -1.24079 
2 1.01903 0.101251 -0.0176854 
1 1.10913 1.54225 -1.38715 
2 1.50091 0.557681 -2.59897 
1 1.56805 0.0367769 -0.720978 
1 1.5844 1.7185 -3.61785 
1 0.055919 0.00904033 -1.83785 
1 1.79429 1.37018 -2.5155 
1 1.83714 0.68663 -1.66285 
2 -3.18417 0.345717 1.38855 
2 -2.55337 0.998509 0.952486 
1 -3.28996 1.22832 1.39774 
1 -2.85977 1.64648 0.410039 
1 -3.25776 0.568515 0.538143 
1 -2.39319 0.657971 1.73086 
1 -2.40821 1.75024 1.781 
1 -2.22069 0.833394 0.169552 
1 -1.8804 1.61455 0.866167 
1 -1.53729 0.586606 1.00971 
1 -1.46784 1.25514 1.81916 
2 -1.11674 1.25742 0.61206 
1 -2.42728 0.0185238 0.859331 
1 -0.503013 1.75528 0.218115 
1 -1.1036 0.518148 0.0552359 
1 -0.402874 0.895638 0.991567 
1 0.202647 1.67871 1.4598 
1 0.348914 0.225663 0.624229 
1 0.526748 1.28679 0.504602 
1 0.801548 0.819634 1.44468 
2 1.03569 0.0342521 1.74324 
1 1.36497 0.22262 0.794623 
2 1.38842 1.11508 0.603642 
1 1.91141 0.911889 1.31518 
1 1.92307 0.6777 0.0408293 
1 1.94733 0.677557 -3.36068 
2 1.96941 1.58296 -1.65607 
1 1.95082 -1.11983 1.0831 
1 1.99489 1.4205 -0.763866 
1 2.06542 -1.88412 -3.17467 
1 2.03677 -3.29205 -1.8623 
1 2.07639 -1.54943 -1.07633 
1 2.09098 -2.21067 -2.05062 
1 2.12041 -2.92473 -2.85296 
1 2.16696 1.60233 0.566155 
1 2.17193 -2.60058 -1.017 
1 2.21726 -0.311013 -1.4883 
1 2.18277 -2.99505 1.05555 
1 2.18846 -2.02641 1.6343 
1 2.28851 -2.27192 -0.0127483 
2 2.3504 1.45814 -3.27544 
2 2.33559 -1.32982 0.101995 
1 -3.71836 -2.0674 0.944986 
2 3.66863 -1.97637 -0.90173 
1 3.16175 -2.76375 -3.12531 
2 2.80416 -2.68107 -2.30003 
2 2.51853 -3.137 -0.0189027 
2 3.16845 -0.817959 -3.73208 
1 2.49308 -3.64121 -0.738285 
1 2.48681 -0.866869 -3.1285 
1 3.5103 -1.0021 -2.91716 
1 2.99403 -1.73363 -3.72579 
1 3.15317 -2.65411 -0.521939 
1 3.51462 -1.0924 -1.81564 
1 3.21723 -0.324185 -1.12534 
2 3.28602 -0.762883 -0.350816 
2 2.81452 -1.09978 -1.25889 
1 3.01285 -1.97723 -1.49723 
1 2.90651 -3.56926 -2.44715 
1 3.02027 -3.04714 -1.5259 
1 2.50833 -3.70612 -3.44407 
1 2.97131 -0.318391 -2.25997 
1 2.98661 -1.57257 -0.488065 
1 2.97891 -1.84916 -2.59457 
1 2.36743 -1.17594 -2.06871 
1 3.7034 -2.5045 -2.1909 
1 2.41509 -0.686763 -0.539755 
1 3.60477 -3.71306 -0.963108 
2 3.40615 -1.18335 1.03911 
2 3.33218 -2.03473 0.150351 
1 3.30913 -3.61573 0.0224551 
1 3.2182 -3.63786 1.11496 
1 2.86959 -0.609111 1.46991 
1 2.76519 -1.72831 0.773519 
1 3.11344 -2.62057 1.64038 
1 2.88286 -0.718123 0.419183 
1 3.05923 -2.74917 0.553411 
2 2.58036 0.0362097 -0.0547751 
1 3.03306 0.928553 -3.48374 
1 2.9875 1.61731 -2.68738 
1 3.60095 0.524364 -2.20521 
1 3.48458 0.0500177 -0.101382 
1 2.82126 1.26035 -1.64317 
2 2.86336 0.347176 -1.66229 
1 3.58864 0.658878 -1.11537 
1 2.56955 0.493769 -0.82195 
1 3.06151 1.69614 -0.658486 
1 2.57353 0.640655 -2.49495 
2 2.46546 0.0144741 -3.11796 
1 3.79016 1.66571 -3.46075 
1 3.33462 -0.00960261 -3.20665 
1 3.43176 0.323792 1.66283 
2 3.74966 1.3128 0.630454 
1 2.94866 0.914431 0.130888 
1 2.98942 1.12961 1.17458 
1 2.49509 0.176157 0.805421 
2 3.36015 0.38689 0.755212 
2 2.55615 0.36017 1.64878 
1 -2.89138 2.15573 -2.88609 
1 -2.63838 3.19576 -3.17102 
1 -2.47675 2.81191 -2.09115 
2 -3.22325 2.2654 -1.98739 
1 -3.02224 3.17684 -0.3688 
1 -3.48548 2.81927 -1.34318 
1 -2.53049 2.44875 -1.09367 
1 -3.46566 2.23147 -0.293781 
1 -1.96011 3.27358 -0.756755 
1 -3.46964 2.97665 -2.44511 
1 -2.13002 2.30881 -3.63233 
1 -2.19678 2.38006 -0.0869562 
1 -3.57642 2.72872 -3.50404 
1 -2.7537 3.63715 -1.35558 
2 -1.96897 3.426 -1.64865 
2 -1.39806 3.06378 -0.135655 
1 -1.58211 3.22475 -3.6028 
1 -1.51701 2.90867 -2.59611 
1 -1.48359 2.70948 -1.55808 
1 -1.15615 2.38251 -0.609886 
1 -1.01131 2.20784 -3.2352 
1 -0.892089 3.4109 -0.834007 
1 -0.922548 1.95458 -2.17308 
2 -0.739214 2.23441 -1.37167 
1 -0.557494 3.19759 -3.11361 
1 -0.457979 2.92524 -1.91335 
2 -0.213441 2.3764 -3.60519 
1 -0.108156 2.68901 -0.951997 
1 -0.0114899 2.39994 -2.70931 
1 0.0838788 1.9452 -1.65462 
2 0.0411727 3.40331 -0.435579 
1 0.191324 3.69362 -1.25774 
1 0.517814 3.35158 -2.77683 
1 0.580082 2.02146 -3.54212 
1 0.685864 2.86393 -1.75973 
2 0.681044 2.30303 -1.0929 
1 0.735987 2.85375 -0.342537 
2 1.02718 3.35923 -1.03983 
1 -1.1809 3.69524 -1.91235 
1 1.24898 2.66709 -3.05583 
2 1.29737 3.16075 -2.31619 
1 1.29546 1.86461 -0.0065801 
1 1.51914 2.41762 -0.912198 
1 1.61201 2.33007 -2.0189 
1 1.71095 3.29759 -0.32321 
1 1.80003 3.22303 -1.52014 
1 -2.37995 2.58461 0.997147 
1 -3.47638 3.133 1.65359 
1 -3.11839 3.41709 0.688365 
2 -2.95793 2.60616 0.326868 
1 -3.42729 2.26779 1.0076 
1 -2.30517 3.62076 1.40543 
1 -2.1176 3.39783 0.300079 
2 -1.66708 3.14121 1.00499 
1 -1.52042 2.57606 1.68666 
1 -1.33045 2.48033 0.529435 
1 -1.16131 3.63153 1.5153 
1 -1.04274 3.54982 0.47071 
1 -0.819492 1.87408 1.2522 
1 -0.45641 2.92284 1.0979 
1 -0.437966 2.81749 0.0228833 
1 0.303666 3.43642 0.440853 
1 0.375939 2.34967 0.587766 
1 0.62255 3.10617 1.39747 
2 1.15923 3.60962 0.295271 
1 1.23091 1.84587 1.1019 
1 1.3921 2.78317 0.560746 
1 1.53902 3.70232 1.09081 
1 1.60772 2.78791 1.641 
1 2.12884 3.29261 -2.53703 
1 2.11187 1.84839 1.70257 
1 2.19091 2.25737 -2.89758 
2 2.33179 2.97946 -0.861784 
1 2.30603 2.39672 -0.158114 
1 2.84251 2.08339 -3.71236 
1 3.03926 2.86515 -2.88836 
1 2.46649 2.25875 -1.33684 
1 3.17348 2.87185 -0.588635 
1 3.32799 2.27657 -1.95765 
1 2.90218 3.23393 -1.61052 
2 2.5113 2.60315 -2.14679 
2 3.66422 2.21944 -2.78738 
1 3.72944 3.72564 -3.2059 
1 3.17764 1.92382 0.40446 
1 2.45142 3.48575 1.63514 
2 3.1578 2.9867 1.35483 
1 3.39545 2.93242 0.499152 
1 2.42612 2.60884 0.941498 
1 2.4593 3.55699 0.4361 
1 3.14486 2.11282 1.55636 
1 -0.827674 0.401577 1.85139 
2 -0.0161278 0.840454 1.85397 
1 -0.794015 -0.729652 1.94452 
1 -3.37161 -2.23436 1.93033 
2 -2.73339 -2.88375 2.13591 
1 -3.44993 -3.0463 2.62302 
1 -2.28754 -2.10153 2.12508 
1 -2.32334 -2.8756 2.97829 
1 -3.02812 -2.08612 2.9003 
1 -1.88087 -3.12455 2.01696 
1 -1.13371 -2.60906 2.64379 
2 -1.03198 -3.43424 2.2658 
2 -0.994254 -2.02799 3.45308 
1 -1.81516 -1.89465 3.07421 
1 0.500752 -3.30779 2.48196 
1 -0.255515 -2.52596 3.2193 
2 -0.280148 -2.86425 2.35727 
1 0.664483 -2.30317 2.44939 
1 -0.460144 -3.56236 2.97618 
2 0.809823 -2.29241 3.32503 
1 -3.11102 -3.57235 3.49878 
1 -2.82903 -1.14042 2.4931 
1 -2.48587 -0.626207 3.39205 
2 -3.06771 -0.32662 2.74261 
1 -3.48139 -1.25973 3.40867 
2 -2.5627 -1.48893 3.30701 
1 -1.16098 -0.136968 2.75556 
1 -1.28758 -1.74776 1.94672 
1 -1.45024 -0.749094 3.60464 
1 -1.78105 -0.980126 2.50925 
1 -0.837072 -1.32808 2.91372 
1 -0.290984 -1.95515 2.24439 
1 -0.440863 -0.340118 3.58565 
1 0.233224 -1.58247 3.19911 
1 0.0194556 -0.680439 2.62361 
2 0.527824 -1.43001 2.37466 
1 0.568117 -3.16332 3.53084 
1 -1.5492 -3.61321 2.95412 
1 -1.41438 -2.8056 3.63638 
1 -2.24787 -0.0305621 2.56811 
1 0.91338 -0.746571 3.21668 
1 1.05673 -0.749432 2.17032 
1 1.3418 -1.61363 2.78065 
1 1.48253 -2.81304 2.93968 
1 -3.56787 -2.64458 3.5938 
2 1.58385 -2.27201 2.24787 
2 -1.01143 -3.69608 3.68798 
1 1.7495 -0.246989 2.82704 
2 1.78801 -2.06246 3.42656 
2 1.79947 -3.31629 3.62648 
1 -2.91232 0.34314 3.35754 
1 -3.38534 1.23523 3.08802 
1 -3.25278 0.455311 2.34777 
2 -3.01728 1.32147 2.27101 
1 -2.27771 1.00598 2.74008 
1 -1.82752 0.298773 3.54078 
1 -1.57194 1.39494 3.72419 
2 -1.64513 0.462707 2.18274 
1 -1.21783 0.916075 2.81138 
1 -0.719124 0.699505 3.72042 
1 -0.649345 1.74329 3.34718 
1 -0.466012 1.50242 2.28876 
1 -0.245718 0.472026 2.73111 
1 0.245728 1.14571 3.41005 
1 0.531988 0.150774 3.67791 
1 0.610764 1.206 2.42154 
1 0.725495 0.143067 2.60714 
2 0.927574 1.65402 3.16623 
1 1.30657 0.819023 3.26394 
2 1.33202 1.40042 1.85993 
1 1.55361 0.633832 2.2479 
1 1.64987 1.66595 2.6466 
2 3.82221 -1.47324 2.4758 
1 1.53246 3.74378 2.1662 
1 2.0803 -1.17162 3.39863 
1 2.13713 -1.09301 2.20761 
1 2.18104 -2.96144 2.12514 
2 2.24377 0.477824 2.88232 
1 2.26929 -3.64034 2.93712 
1 2.3487 1.24745 3.28563 
1 2.32369 -2.04339 2.71441 
1 3.36428 -2.18711 2.76522 
1 3.70132 -0.586926 2.21645 
1 2.59832 -0.127099 3.48667 
1 3.66599 -0.262097 3.24073 
1 2.71096 -0.120775 2.39182 
1 3.12384 -3.50047 2.2199 
2 2.76964 -2.85836 2.76421 
1 2.4135 -2.68559 3.56505 
1 3.03195 -1.10374 2.86889 
1 3.16234 -1.56128 1.85967 
1 3.24015 -3.38839 3.30212 
1 3.17881 0.637247 2.95168 
2 3.2371 1.47883 3.24355 
1 3.51239 1.3089 2.20578 
2 3.73426 0.542722 3.60841 
1 2.51546 1.01179 2.21826 
1 2.0623 2.90306 3.73264 
1 -0.145984 3.73227 1.8936 
1 -3.36272 2.15416 2.0738 
1 -2.6124 1.97583 2.84551 
1 -2.50331 2.77865 2.07535 
1 -2.78403 2.90234 3.26859 
1 -3.52309 3.35142 2.71933 
2 -2.19973 3.57404 3.31151 
1 -2.52755 3.72799 2.48871 
2 -3.01297 2.12215 3.63851 
1 -1.80998 2.87243 2.88665 
2 -1.76498 3.39673 2.14018 
1 -1.50377 1.91948 2.63169 
2 -1.36385 2.28143 3.42288 
1 -0.914548 3.12967 2.37683 
1 -0.720173 2.87582 3.3586 
2 -0.68896 2.30325 2.6612 
1 -0.122472 2.54239 2.01154 
2 -0.11241 3.07398 2.75795 
1 0.194626 2.22097 2.95841 
1 0.322379 3.13404 3.58918 
1 0.703509 3.12 2.48086 
1 0.903589 2.16289 2.1021 
1 1.21801 2.49286 3.19889 
1 1.36274 3.5655 3.22016 
1 2.06708 2.82644 2.62622 
2 2.09853 2.14506 3.24851 
2 2.44267 2.62008 1.84764 
1 3.73083 2.23541 3.05049 
1 2.74924 1.9871 2.63222 
1 3.13267 2.90353 2.26318 
1 3.05259 3.0429 3.32706 
