ITEM: TIMESTEP
675
ITEM: NUMBER OF ATOMS
500
ITEM: BOX BOUNDS xy xz yz pp pp pp
-3.7345 3.81666 0.082159
-3.7345 3.7345 0
-3.7345 3.7345 0
ITEM: ATOMS type xu yu zu 
1 -2.80796 -2.06095 -2.51646 
1 -3.09887 -3.02028 -2.91974 
1 -2.54083 -2.31915 -3.61552 
1 -2.22485 -3.3449 -3.46264 
1 -1.87509 -2.53793 -2.78909 
1 -0.939258 -2.69532 -2.22712 
2 -1.7506 -3.05055 -2.09207 
1 -0.745752 -2.34317 -3.20349 
1 0.302442 -2.22781 -3.37855 
1 -0.312366 -3.29249 -3.38384 
2 -0.174288 -2.72895 -2.66835 
1 0.616349 -3.05339 -2.78321 
1 -3.20135 -0.406031 -3.31981 
1 -3.0517 -0.978427 -2.39103 
1 -2.6689 -1.33868 -3.3113 
1 -2.3033 -0.477761 -1.86455 
1 -2.1078 -0.505377 -2.99629 
1 -2.0271 -1.4017 -2.40193 
1 -0.99002 -1.60817 -2.48178 
1 -1.61464 -1.68701 -3.37959 
2 -1.26688 -0.927623 -3.01506 
1 -1.34469 -0.645649 -2.17942 
1 0.011981 -1.89277 -2.4039 
1 0.374788 -0.834254 -3.35857 
2 0.620219 -1.52028 -2.91574 
1 -0.440504 -0.651625 -2.7092 
1 0.472436 -0.941676 -2.24062 
1 -0.57395 -1.35902 -3.50972 
1 -2.66686 -2.86127 -1.87301 
1 -3.44354 -2.77149 -1.15351 
1 -2.73004 -3.3185 -0.400892 
1 -2.46631 -2.35237 -0.868233 
1 -3.35303 -2.23293 -0.186615 
2 -3.57167 -3.08976 -0.342046 
1 -1.63968 -3.31738 -0.225977 
1 -1.76586 -2.23511 -1.74688 
1 -1.9093 -3.24333 -1.24423 
1 -1.37365 -2.41807 -0.76343 
1 -0.741947 -3.09924 -1.26118 
1 -0.645959 -2.00077 -1.47306 
1 0.16188 -2.75242 -1.81737 
1 0.0822816 -2.57096 -0.766212 
1 -0.489901 -3.33253 -0.203127 
1 0.610142 -3.46218 -0.356076 
2 0.663651 -3.09484 -1.16809 
1 -3.19367 -1.8285 -1.55405 
1 -3.55746 -1.10625 -0.83857 
1 -3.34316 -0.204777 -1.62489 
2 -2.98263 -0.989548 -1.51776 
1 -2.61896 -0.516165 -0.878108 
1 -2.69007 -1.41435 -0.321674 
2 -3.45509 -0.225285 -0.741616 
1 -2.20281 -1.3831 -1.29887 
2 -1.40964 -1.41708 -1.74605 
1 -1.56135 -0.30476 -1.14615 
2 -1.92694 -0.946279 -0.489017 
1 -1.21759 -1.28421 -0.919897 
2 -0.803245 -0.520947 -0.755846 
1 -0.583378 -1.84466 -0.314063 
1 -0.475866 -0.942627 -1.65617 
1 0.392012 -1.68222 -1.37309 
1 -0.0664652 -0.982784 -0.692031 
2 0.384962 -0.700262 -1.39785 
2 -3.61236 -1.66307 -2.35517 
1 -1.96312 -0.110442 -0.160603 
2 -3.61519 -0.283176 -2.50051 
1 -1.29393 -3.43724 -2.93052 
1 -3.57534 -3.52409 -2.0444 
1 -2.27041 -3.66934 -2.42454 
1 -0.323187 -0.197819 -0.0662937 
1 0.509682 -1.71544 -0.231005 
1 -0.318803 -3.55297 -2.30631 
1 0.857557 -0.0677925 -2.7607 
1 0.934714 -3.56488 -1.89908 
1 -3.57608 -1.91272 -3.18356 
1 1.11217 -0.218243 -1.69688 
1 1.12246 -1.60427 -3.65139 
1 1.12884 -2.12033 -2.57841 
1 1.06067 -0.915254 -0.861479 
1 1.1781 -2.49168 -1.57314 
2 1.19879 -1.77555 -0.99405 
1 1.15236 -2.50061 -0.51754 
1 1.34647 -2.62968 -3.49487 
1 1.40216 -1.06798 -2.8014 
1 1.32897 -1.38484 -1.79569 
1 1.35577 -3.70223 -3.18128 
2 1.38933 -2.93023 -2.3457 
1 1.46188 -3.38272 -0.976344 
1 1.58805 -0.303478 -3.54497 
1 1.54122 -1.54614 -0.170129 
1 0.469458 -0.0135659 -0.77933 
1 -1.19813 0.0122965 -3.06261 
1 -1.7188 -1.73056 -0.0628979 
1 1.8937 -0.193823 -2.47869 
1 -3.35902 -3.30243 1.60851 
1 -3.37475 -3.01472 0.529257 
1 -2.61723 -2.65183 1.26069 
2 -2.58335 -3.35115 0.659024 
1 -2.34121 -2.56268 0.212854 
1 -1.75231 -3.15322 0.892808 
1 -1.08089 -2.55887 0.32655 
1 -0.938452 -2.78779 1.63604 
1 -1.7304 -2.0432 1.00259 
1 -0.0209456 -2.48813 0.318485 
1 0.161164 -2.70054 1.57763 
1 -0.408829 -3.31086 0.900886 
2 0.663432 -3.49028 1.5973 
1 0.703132 -3.12199 0.728163 
1 0.538457 -1.76046 0.853162 
2 0.858456 -2.36678 0.285638 
1 -2.7716 -1.71164 0.710414 
2 -2.86724 -0.790072 0.93257 
1 -3.33485 -1.2629 1.52155 
1 -2.23948 -1.20801 1.51898 
1 -2.84568 -0.355325 1.7529 
1 -2.12964 -0.923157 0.473679 
2 -1.01501 -1.66328 0.443442 
1 -1.72197 -0.257282 1.63254 
1 -1.24783 -1.07848 1.05268 
2 -1.57018 -0.255737 0.671546 
1 -0.539307 -1.93918 1.14031 
1 -0.710812 -0.166052 0.932118 
1 -0.268829 -1.16418 0.454241 
1 0.116877 -1.15962 1.62367 
2 0.0985509 -0.553036 0.946709 
1 0.651734 -0.698948 0.126505 
1 -3.65941 -0.374649 0.95754 
1 0.136445 -0.0473431 1.68982 
1 -3.03966 -0.432054 0.0802622 
1 -3.6912 -1.26419 0.235563 
1 1.15616 -1.68323 1.70682 
1 0.943373 -0.673044 1.1462 
2 1.22015 -1.26941 0.577239 
1 1.23673 -2.78655 1.62005 
1 1.55436 -2.12246 0.758675 
1 -1.1739 -0.799043 0.0195955 
1 1.62516 -3.1707 0.137487 
1 1.72144 -0.544318 0.215144 
1 1.86402 -0.197997 1.65777 
1 -3.50165 1.48794 -2.3432 
1 -3.32397 0.72898 -3.13414 
2 -2.72059 1.06275 -2.46476 
1 -2.80067 0.160395 -2.47411 
1 -2.07266 0.744322 -2.97876 
1 -2.55449 1.73667 -1.88784 
1 -2.89385 0.441714 -0.592924 
1 -2.96081 0.802055 -1.61429 
1 -2.56517 1.46365 -0.681982 
2 -2.34073 0.221871 -1.31543 
1 -3.48698 1.71654 -1.27257 
1 -3.57826 1.18274 -0.253027 
1 -2.64039 1.34736 -3.65572 
1 -1.94342 0.828879 -1.92601 
1 -1.89812 1.79984 -2.70853 
2 -1.829 0.0891729 -2.39759 
1 -1.74122 0.713464 -0.860668 
1 -1.65951 1.69728 -1.30755 
1 -1.51215 1.51465 -0.15866 
1 -1.1145 1.06126 -2.75076 
2 -1.09413 1.16718 -1.76089 
1 -1.0104 0.308668 -1.9946 
1 -0.686437 1.44077 -0.95853 
1 -0.658218 0.319567 -0.985791 
1 -0.263353 1.06838 -2.11552 
1 -0.214002 1.44982 -3.13095 
2 -2.55225 0.155301 -3.36184 
1 -0.121189 0.831431 -0.194349 
1 -0.12652 0.363571 -2.9177 
1 0.230344 0.938089 -1.19796 
1 0.299913 1.79959 -0.490286 
1 0.784792 1.78902 -2.46368 
1 0.805128 0.771257 -2.08925 
1 0.879385 0.971989 -3.16587 
1 0.974365 0.911565 -0.413717 
2 1.0385 0.567116 -1.24129 
2 1.01357 0.106778 -0.0150342 
1 1.09319 1.54357 -1.38707 
2 1.4865 0.55789 -2.59842 
1 1.55612 0.0383529 -0.72268 
1 1.56667 1.71908 -3.61829 
1 0.0435991 0.0115809 -1.84026 
1 1.77836 1.37062 -2.51409 
1 1.82483 0.684835 -1.66253 
2 -3.19676 0.346038 1.3878 
2 -2.567 0.995607 0.949865 
1 -3.30158 1.22895 1.39513 
1 -2.87463 1.64573 0.408948 
1 -3.27221 0.567175 0.537099 
1 -2.40591 0.657897 1.72939 
1 -2.41962 1.74983 1.78212 
1 -2.23541 0.832154 0.166745 
1 -1.89586 1.61214 0.865381 
1 -1.54987 0.585765 1.00818 
1 -1.47988 1.25389 1.81723 
2 -1.13123 1.25759 0.611194 
1 -2.43969 0.0190166 0.857329 
1 -0.518619 1.75515 0.216371 
1 -1.1161 0.517502 0.0542323 
1 -0.417398 0.895914 0.990782 
1 0.187427 1.67871 1.45986 
1 0.335571 0.22693 0.622963 
1 0.510779 1.28787 0.504183 
1 0.786482 0.82061 1.44537 
2 1.02447 0.0334675 1.73996 
1 1.34981 0.219811 0.802377 
2 1.37109 1.11193 0.606251 
1 1.89865 0.911925 1.31524 
1 1.90595 0.672746 0.0448174 
1 1.93149 0.679687 -3.35964 
2 1.95319 1.58189 -1.65499 
1 1.94393 -1.119 1.08023 
1 1.97788 1.41712 -0.762142 
1 2.05604 -1.88078 -3.17103 
1 2.03706 -3.29268 -1.86286 
1 2.07108 -1.55682 -1.08236 
1 2.0851 -2.21196 -2.05067 
1 2.11806 -2.92368 -2.8532 
1 2.14971 1.60034 0.564454 
1 2.17479 -2.60441 -1.01764 
1 2.20352 -0.315601 -1.48748 
1 2.17745 -2.99066 1.0575 
1 2.18008 -2.02456 1.63592 
1 -3.72319 -2.07085 0.945367 
2 3.66577 -1.97955 -0.90242 
1 3.15891 -2.76407 -3.12761 
2 2.80005 -2.68257 -2.29873 
2 2.51585 -3.13821 -0.024098 
2 3.15722 -0.812073 -3.73051 
1 2.49432 -3.6443 -0.741921 
1 2.4739 -0.86247 -3.12879 
1 3.49561 -1.00037 -2.91493 
1 2.98191 -1.72657 -3.72324 
1 3.15135 -2.65655 -0.522177 
1 3.50699 -1.0917 -1.81766 
1 3.2048 -0.326196 -1.1258 
2 3.27606 -0.7662 -0.351102 
2 2.80724 -1.10376 -1.26124 
1 3.01136 -1.98032 -1.50049 
1 2.90686 -3.56835 -2.44841 
1 3.02162 -3.05017 -1.52619 
1 2.50761 -3.70453 -3.44373 
1 2.95867 -0.317332 -2.25804 
1 2.98135 -1.57713 -0.492005 
1 2.97207 -1.85253 -2.5952 
1 2.36027 -1.1776 -2.0719 
1 3.70007 -2.50799 -2.19546 
1 2.40455 -0.694794 -0.540545 
1 3.60789 -3.71503 -0.963194 
1 2.28359 -2.27296 -0.0134748 
2 3.39769 -1.18495 1.04013 
2 3.32428 -2.03593 0.150816 
1 3.30665 -3.61766 0.020579 
1 3.222 -3.63824 1.11485 
1 2.85997 -0.612363 1.47182 
1 2.75924 -1.73233 0.777294 
1 3.10654 -2.6197 1.63805 
1 2.87471 -0.71938 0.420315 
1 3.05404 -2.75234 0.55189 
2 2.33725 -1.33609 0.102763 
2 2.56249 0.0295345 -0.0533805 
2 2.33395 1.4602 -3.27688 
1 3.01544 0.928006 -3.48288 
1 2.97023 1.61915 -2.68817 
1 3.58782 0.523701 -2.20523 
1 3.46965 0.048859 -0.103287 
1 2.80636 1.26021 -1.64282 
2 2.84663 0.346964 -1.66085 
1 3.57398 0.657962 -1.11679 
1 2.55608 0.490927 -0.819334 
1 3.04439 1.69357 -0.657669 
1 2.56007 0.64201 -2.49439 
2 2.45227 0.0184216 -3.11811 
1 3.77285 1.66433 -3.46261 
1 3.32195 -0.00808499 -3.2053 
1 3.41944 0.32207 1.66105 
2 3.73372 1.31102 0.629726 
1 2.9323 0.91166 0.132087 
1 2.97555 1.12908 1.17514 
1 2.48173 0.172758 0.807479 
2 3.3462 0.384312 0.754326 
2 2.54398 0.362031 1.64976 
1 -2.90879 2.15449 -2.88844 
1 -2.65442 3.19393 -3.17349 
1 -2.49269 2.81108 -2.09265 
2 -3.23946 2.26521 -1.98887 
1 -3.0408 3.17411 -0.370776 
1 -3.50149 2.81916 -1.34498 
1 -2.54717 2.44735 -1.09479 
1 -3.48525 2.2298 -0.292076 
1 -1.98031 3.27441 -0.756886 
1 -3.4855 2.97632 -2.44737 
1 -2.14865 2.3092 -3.63564 
1 -2.21053 2.37945 -0.0886725 
1 -3.59431 2.72798 -3.50477 
1 -2.77262 3.63733 -1.35803 
2 -1.98706 3.42619 -1.64833 
2 -1.42274 3.05803 -0.134332 
1 -1.59949 3.2236 -3.60201 
1 -1.53072 2.91186 -2.59383 
1 -1.50075 2.71024 -1.55627 
1 -1.17124 2.38064 -0.60999 
1 -1.02985 2.21013 -3.23667 
1 -0.912091 3.4113 -0.829555 
1 -0.940202 1.9558 -2.17494 
2 -0.756387 2.23212 -1.3724 
1 -0.574208 3.19944 -3.11696 
1 -0.477211 2.92598 -1.91291 
2 -0.231376 2.37801 -3.60534 
1 -0.126935 2.68953 -0.951426 
1 -0.0302307 2.40109 -2.70909 
1 0.0671968 1.94614 -1.65426 
2 0.0207615 3.40462 -0.434877 
1 0.168557 3.69426 -1.25797 
1 0.498232 3.35153 -2.77744 
1 0.562029 2.02248 -3.54223 
1 0.666672 2.86551 -1.76051 
2 0.664264 2.30573 -1.09319 
1 0.717573 2.85572 -0.342706 
2 1.00458 3.3621 -1.04046 
1 -1.19903 3.69824 -1.90752 
1 1.23077 2.66803 -3.05543 
2 1.27769 3.16328 -2.31645 
1 1.27838 1.86602 -0.00585499 
1 1.50277 2.41679 -0.910676 
1 1.59539 2.33107 -2.01831 
1 1.69292 3.29802 -0.323094 
1 1.77848 3.22433 -1.51794 
1 -2.39855 2.58107 0.996908 
1 -3.49619 3.12971 1.65439 
1 -3.1414 3.41267 0.687612 
2 -2.97219 2.6042 0.324245 
1 -3.44623 2.26777 1.00349 
1 -2.32834 3.61813 1.4056 
1 -2.14106 3.39715 0.300138 
2 -1.68918 3.1395 1.00393 
1 -1.53845 2.57357 1.68453 
1 -1.34751 2.4784 0.531335 
1 -1.18487 3.63111 1.51453 
1 -1.06625 3.54837 0.469121 
1 -0.83334 1.8746 1.2514 
1 -0.476258 2.92583 1.09852 
1 -0.456473 2.81774 0.0241297 
1 0.283943 3.43677 0.441701 
1 0.357897 2.35043 0.588568 
1 0.602301 3.10595 1.39841 
2 1.13814 3.60889 0.294135 
1 1.21498 1.84581 1.10169 
1 1.37358 2.78412 0.56082 
1 1.51441 3.70356 1.09198 
1 1.58833 2.78835 1.6403 
1 2.11017 3.2897 -2.53499 
1 2.09492 1.84937 1.70296 
1 2.17245 2.2576 -2.89901 
1 2.82642 2.08614 -3.71244 
1 3.02157 2.86503 -2.88764 
2 2.31177 2.97661 -0.862252 
1 2.44996 2.25685 -1.33666 
1 2.28927 2.39672 -0.157127 
1 3.15508 2.86914 -0.592556 
1 3.31211 2.27629 -1.95783 
1 2.88214 3.23246 -1.61334 
2 2.49486 2.59889 -2.14793 
2 3.64724 2.21892 -2.78869 
1 3.70589 3.72487 -3.20784 
1 3.15981 1.92118 0.405008 
1 2.43039 3.48824 1.63308 
2 3.1374 2.98787 1.3544 
1 3.3712 2.93117 0.497827 
1 2.40647 2.60747 0.941355 
1 2.43689 3.55929 0.441109 
1 3.12777 2.11469 1.55719 
1 -0.840237 0.400343 1.85042 
2 -0.0306457 0.840545 1.85382 
1 -0.804722 -0.728928 1.9441 
1 -3.37826 -2.23437 1.93511 
2 -2.73504 -2.88414 2.13709 
1 -3.44835 -3.04469 2.62809 
1 -2.29329 -2.10071 2.12753 
1 -2.32442 -2.87466 2.97849 
1 -3.03065 -2.08263 2.90578 
1 -1.88308 -3.12436 2.01574 
1 -1.13573 -2.61063 2.64151 
2 -1.03217 -3.43466 2.26427 
2 -0.996096 -2.02745 3.45657 
1 -1.81495 -1.89749 3.07542 
1 0.501276 -3.30977 2.48058 
1 -0.260335 -2.52772 3.22094 
2 -0.279753 -2.86456 2.35785 
1 0.657218 -2.30432 2.45242 
1 -0.460574 -3.56315 2.97511 
2 0.804433 -2.29232 3.32696 
1 -3.10795 -3.57758 3.5004 
1 -2.83812 -1.1375 2.49234 
1 -2.49664 -0.619912 3.39402 
2 -3.08022 -0.326023 2.74615 
1 -3.48913 -1.25276 3.40445 
2 -2.55896 -1.48216 3.30097 
1 -1.17317 -0.137189 2.75513 
1 -1.29369 -1.74728 1.94769 
1 -1.46177 -0.750686 3.60391 
1 -1.79089 -0.981824 2.51107 
1 -0.844838 -1.32786 2.9147 
1 -0.297474 -1.95557 2.24605 
1 -0.453029 -0.339142 3.58615 
1 0.224524 -1.58326 3.20152 
1 0.00866043 -0.681603 2.62463 
2 0.518838 -1.43122 2.37664 
1 0.566441 -3.16393 3.5297 
1 -1.55026 -3.61439 2.95191 
1 -1.4083 -2.81001 3.63552 
1 -2.26065 -0.0316555 2.56606 
1 0.903039 -0.747034 3.21706 
1 1.04611 -0.749693 2.17105 
1 1.33409 -1.61373 2.78195 
1 1.47889 -2.81198 2.94163 
1 -3.55872 -2.65028 3.60195 
2 1.57833 -2.27133 2.25027 
2 -1.01115 -3.69367 3.68706 
1 1.73801 -0.245868 2.8268 
2 1.78241 -2.05984 3.42816 
2 1.79773 -3.31411 3.62812 
1 -2.92601 0.347248 3.35781 
1 -3.40113 1.23798 3.08404 
1 -3.2656 0.453925 2.34707 
2 -3.03016 1.31929 2.26833 
1 -2.29065 1.00499 2.73841 
1 -1.8387 0.298779 3.53821 
1 -1.58854 1.39537 3.72199 
2 -1.65787 0.461956 2.18134 
1 -1.23112 0.915933 2.80974 
1 -0.734959 0.700074 3.71956 
1 -0.665509 1.74339 3.34698 
1 -0.480183 1.5024 2.28878 
1 -0.258719 0.471712 2.73063 
1 0.229999 1.1451 3.41152 
1 0.520237 0.150377 3.67753 
1 0.595635 1.20517 2.42267 
1 0.712624 0.14211 2.60675 
2 0.910928 1.65388 3.16669 
1 1.29192 0.819349 3.26358 
2 1.31672 1.40077 1.86007 
1 1.53915 0.634003 2.24717 
1 1.63346 1.66645 2.64688 
2 3.81413 -1.47312 2.48039 
1 1.51158 3.74256 2.1674 
1 2.06968 -1.16819 3.39895 
1 2.12722 -1.09253 2.20869 
1 2.17754 -2.95964 2.12706 
2 2.23084 0.479315 2.88188 
1 3.3615 -2.18724 2.7789 
1 3.69187 -0.587561 2.21703 
1 2.58518 -0.123354 3.4873 
1 3.65173 -0.256033 3.24009 
1 2.70062 -0.119739 2.39234 
1 3.12308 -3.49619 2.22168 
2 2.76475 -2.85577 2.76613 
1 2.26876 -3.63912 2.93886 
1 2.31952 -2.04057 2.71564 
1 2.40898 -2.68178 3.56648 
1 3.0217 -1.10114 2.87029 
1 3.15506 -1.56329 1.86514 
1 3.23878 -3.38225 3.30349 
1 3.16316 0.641417 2.95182 
2 3.22178 1.48116 3.24581 
1 3.4975 1.30628 2.20061 
2 3.71997 0.5495 3.60779 
1 2.33267 1.24914 3.28617 
1 2.49969 1.01387 2.2185 
1 2.04371 2.90325 3.73159 
1 -0.168378 3.7323 1.89265 
1 -3.37687 2.15055 2.07116 
1 -2.6266 1.97406 2.84409 
1 -2.52048 2.77802 2.0755 
1 -2.80566 2.89966 3.26363 
1 -3.54541 3.35524 2.71939 
2 -2.21977 3.56854 3.31347 
1 -2.54865 3.72709 2.49036 
2 -3.03184 2.12108 3.6354 
1 -1.82873 2.86977 2.88758 
2 -1.78638 3.39547 2.14094 
1 -1.51967 1.91854 2.62909 
2 -1.38166 2.27886 3.42118 
1 -0.935129 3.1285 2.37525 
1 -0.739361 2.87488 3.35685 
2 -0.706164 2.30256 2.66036 
1 -0.14114 2.54197 2.01057 
2 -0.132471 3.07442 2.75608 
1 0.177306 2.22108 2.95754 
1 0.302915 3.13431 3.58776 
1 0.684048 3.11867 2.48139 
1 0.886494 2.16235 2.10257 
1 1.20005 2.49278 3.19863 
1 1.34092 3.56552 3.22246 
1 2.04845 2.82562 2.62567 
2 2.08216 2.14526 3.24849 
2 2.42315 2.62217 1.84616 
1 3.71401 2.23824 3.04768 
1 2.73413 1.98729 2.63223 
1 3.11095 2.90711 2.2634 
1 3.03519 3.04666 3.32853 
