ITEM: TIMESTEP
789
ITEM: NUMBER OF ATOMS
500
ITEM: BOX BOUNDS xy xz yz pp pp pp
-3.7345 3.84654 0.112035
-3.7345 3.7345 0
-3.7345 3.7345 0
ITEM: ATOMS type xu yu zu 
1 -2.79618 -2.0577 -2.50761 
1 -3.10493 -3.00872 -2.92317 
1 -2.54487 -2.31692 -3.61893 
1 -2.23106 -3.34369 -3.4606 
1 -1.87375 -2.53597 -2.79424 
1 -0.940831 -2.69434 -2.2333 
2 -1.75189 -3.05176 -2.09727 
1 -0.73889 -2.34731 -3.21153 
1 0.309813 -2.224 -3.38097 
1 -0.309483 -3.29949 -3.38271 
2 -0.173315 -2.72817 -2.6679 
1 0.61637 -3.05206 -2.78505 
1 -3.18255 -0.40383 -3.31846 
1 -3.03907 -0.976698 -2.38605 
1 -2.65862 -1.33802 -3.30453 
1 -2.28781 -0.478436 -1.86357 
1 -2.0945 -0.501334 -2.99749 
1 -2.013 -1.39927 -2.40391 
1 -0.977723 -1.61107 -2.48801 
1 -1.606 -1.68648 -3.3832 
2 -1.25794 -0.928077 -3.01322 
1 -1.32775 -0.649237 -2.17457 
1 0.0248329 -1.89207 -2.40403 
1 0.388917 -0.834975 -3.35981 
2 0.633834 -1.52075 -2.9164 
1 -0.427714 -0.655614 -2.71345 
1 0.488525 -0.940919 -2.24414 
1 -0.561905 -1.36235 -3.51291 
1 -2.66832 -2.86441 -1.87178 
1 -3.44263 -2.77024 -1.15244 
1 -2.72783 -3.31716 -0.397333 
1 -2.46098 -2.35402 -0.869949 
1 -3.34471 -2.23043 -0.189966 
2 -3.56973 -3.08758 -0.341753 
1 -1.63733 -3.31932 -0.228077 
1 -1.76746 -2.23886 -1.75043 
1 -1.90759 -3.24579 -1.24675 
1 -1.36786 -2.42026 -0.768315 
1 -0.743493 -3.10397 -1.27044 
1 -0.641613 -2.00487 -1.47662 
1 0.163763 -2.75401 -1.81885 
1 0.0756178 -2.57426 -0.769756 
1 -0.492473 -3.33501 -0.20684 
1 0.609123 -3.46487 -0.357213 
2 0.664357 -3.09398 -1.16794 
1 -3.18422 -1.82743 -1.54821 
1 -3.54508 -1.10371 -0.836611 
1 -3.32742 -0.204743 -1.6247 
2 -2.96769 -0.989752 -1.51382 
1 -2.60312 -0.515179 -0.876891 
1 -2.67785 -1.41411 -0.321845 
2 -3.43782 -0.222523 -0.741456 
1 -2.18821 -1.3837 -1.29733 
2 -1.39566 -1.42816 -1.74887 
1 -1.54788 -0.295727 -1.14688 
2 -1.91237 -0.944973 -0.489462 
1 -1.20134 -1.27409 -0.926126 
2 -0.795244 -0.510026 -0.746775 
1 -0.581069 -1.84258 -0.314309 
1 -0.453376 -0.955314 -1.66735 
1 0.400413 -1.68583 -1.37111 
1 -0.0617256 -0.980438 -0.695564 
2 0.401263 -0.706508 -1.39882 
2 -3.59977 -1.66133 -2.35231 
1 -1.94733 -0.110375 -0.158001 
2 -3.59912 -0.281736 -2.50189 
1 -1.29675 -3.43583 -2.93496 
1 -3.57441 -3.52134 -2.04625 
1 -2.27471 -3.66995 -2.42522 
1 -0.308019 -0.19783 -0.062064 
1 0.507764 -1.71803 -0.232207 
1 -0.321835 -3.55288 -2.30469 
1 0.876013 -0.0687835 -2.76212 
1 0.933162 -3.56684 -1.90037 
1 -3.56345 -1.92138 -3.17693 
1 1.12918 -0.221918 -1.69582 
1 1.13366 -1.60489 -3.65296 
1 1.14068 -2.12369 -2.58244 
1 1.07382 -0.919294 -0.859425 
1 1.18235 -2.49655 -1.57936 
2 1.2098 -1.78047 -0.996373 
1 1.14262 -2.50598 -0.524118 
1 1.35249 -2.63124 -3.49778 
1 1.41882 -1.07162 -2.80163 
1 1.33836 -1.39072 -1.7959 
1 1.35197 -3.70196 -3.18578 
2 1.38976 -2.93844 -2.35163 
1 1.46205 -3.38465 -0.978275 
1 1.6055 -0.30621 -3.5454 
1 1.53887 -1.55802 -0.165041 
1 0.483633 -0.0168077 -0.779933 
1 -1.18201 0.0119918 -3.06134 
1 -1.70605 -1.7291 -0.0696189 
1 1.90997 -0.195841 -2.47956 
1 -3.35882 -3.29928 1.60163 
1 -3.36867 -3.00929 0.527264 
1 -2.61116 -2.65149 1.25838 
2 -2.57789 -3.34808 0.655361 
1 -2.33205 -2.55894 0.210445 
1 -1.74741 -3.151 0.893539 
1 -1.07696 -2.55978 0.323166 
1 -0.934509 -2.78824 1.63999 
1 -1.72266 -2.04022 0.99919 
1 -0.0164414 -2.49181 0.313195 
1 0.166001 -2.7039 1.57883 
1 -0.407642 -3.30792 0.900652 
2 0.668765 -3.4915 1.59983 
1 0.704908 -3.12383 0.72831 
1 0.545123 -1.76919 0.853872 
2 0.865686 -2.36947 0.283837 
1 -2.7633 -1.70983 0.710708 
2 -2.8525 -0.788494 0.934636 
1 -3.32308 -1.2608 1.52171 
1 -2.22757 -1.20684 1.51917 
1 -2.83075 -0.355042 1.7566 
1 -2.11573 -0.925257 0.474241 
2 -1.00852 -1.66454 0.445704 
1 -1.70644 -0.25623 1.63447 
1 -1.23509 -1.078 1.05499 
2 -1.55634 -0.256819 0.674321 
1 -0.531766 -1.94419 1.13969 
1 -0.697421 -0.165555 0.934741 
1 -0.25937 -1.16803 0.457222 
1 0.12993 -1.15948 1.62001 
2 0.110495 -0.553411 0.94398 
1 0.659189 -0.705612 0.127297 
1 -3.64498 -0.372802 0.957849 
1 0.151837 -0.0473526 1.6894 
1 -3.0227 -0.431913 0.0820689 
1 -3.67914 -1.2613 0.234987 
1 1.16747 -1.68161 1.70381 
1 0.956263 -0.664885 1.1449 
2 1.22703 -1.274 0.585216 
1 1.24214 -2.78668 1.6169 
1 1.56136 -2.12815 0.761129 
1 -1.1602 -0.800421 0.0217397 
1 1.6257 -3.16827 0.134831 
1 1.72671 -0.556676 0.213698 
1 1.87754 -0.196721 1.65419 
1 -3.47923 1.48772 -2.34213 
1 -3.30653 0.728264 -3.13445 
2 -2.69861 1.06414 -2.4629 
1 -2.78353 0.163429 -2.47088 
1 -2.04942 0.744398 -2.97349 
1 -2.53316 1.73705 -1.88499 
1 -2.87434 0.442993 -0.590117 
1 -2.94217 0.802931 -1.6121 
1 -2.54654 1.46597 -0.679552 
2 -2.32403 0.222292 -1.31441 
1 -3.46625 1.71741 -1.27236 
1 -3.55713 1.18532 -0.252334 
1 -2.61819 1.34593 -3.65178 
1 -1.92359 0.827152 -1.92137 
1 -1.87519 1.79902 -2.70434 
2 -1.81099 0.0867829 -2.39393 
1 -1.72873 0.716651 -0.855225 
1 -1.63828 1.69722 -1.30569 
1 -1.492 1.51702 -0.157026 
1 -1.09075 1.06182 -2.75118 
2 -1.07328 1.16497 -1.75755 
1 -0.991706 0.306591 -1.99656 
1 -0.66417 1.44529 -0.956536 
1 -0.643296 0.326092 -0.985272 
1 -0.243413 1.06562 -2.1126 
1 -0.187923 1.4468 -3.12906 
2 -2.54008 0.165436 -3.35581 
1 -0.10322 0.831003 -0.192094 
1 -0.109508 0.359762 -2.91423 
1 0.250258 0.937809 -1.19565 
1 0.321044 1.79879 -0.488094 
1 0.807581 1.78617 -2.46302 
1 0.82283 0.767967 -2.0888 
1 0.900462 0.970738 -3.16644 
1 0.992552 0.908277 -0.411831 
2 1.05616 0.563839 -1.24048 
2 1.02111 0.0990186 -0.0183762 
1 1.11451 1.54162 -1.38716 
2 1.50567 0.557821 -2.5989 
1 1.57194 0.0362659 -0.720459 
1 1.59025 1.71821 -3.61765 
1 0.0596689 0.00790046 -1.83682 
1 1.79991 1.37013 -2.5158 
1 1.84136 0.687014 -1.66306 
2 -3.1801 0.345683 1.38877 
2 -2.54855 0.999371 0.953375 
1 -3.28609 1.22811 1.39835 
1 -2.85486 1.6465 0.410611 
1 -3.25275 0.568934 0.538437 
1 -2.38908 0.657963 1.73142 
1 -2.40442 1.75033 1.78029 
1 -2.21574 0.833605 0.170392 
1 -1.87506 1.61537 0.866181 
1 -1.53307 0.586993 1.01035 
1 -1.4639 1.25558 1.82004 
2 -1.11177 1.25729 0.612165 
1 -2.42303 0.0183147 0.859994 
1 -0.497879 1.75579 0.218814 
1 -1.09967 0.518104 0.0555866 
1 -0.398161 0.895566 0.992095 
1 0.207539 1.67892 1.45977 
1 0.35362 0.225766 0.624548 
1 0.53171 1.28683 0.50472 
1 0.806568 0.819498 1.44432 
2 1.03946 0.0345369 1.74403 
1 1.37018 0.22326 0.792218 
2 1.39379 1.11588 0.602439 
1 1.91575 0.912001 1.31479 
1 1.92889 0.679142 0.0396417 
1 1.95254 0.676996 -3.36086 
2 1.97482 1.5833 -1.65628 
1 1.95294 -1.12018 1.08353 
1 2.00053 1.42153 -0.764301 
1 2.0685 -1.88506 -3.17583 
1 2.03694 -3.29172 -1.86198 
1 2.07814 -1.54627 -1.07407 
1 2.09295 -2.21019 -2.05053 
1 2.12128 -2.92497 -2.85282 
1 2.17256 1.60304 0.56633 
1 2.17093 -2.59873 -1.01667 
1 2.22168 -0.309967 -1.48838 
1 2.18444 -2.99675 1.0547 
1 2.19113 -2.02699 1.63352 
1 2.29028 -2.27151 -0.0122991 
2 2.35586 1.45762 -3.27492 
2 2.33487 -1.32756 0.101724 
1 2.36981 -1.17547 -2.0678 
1 -3.71664 -2.06626 0.944953 
2 3.66968 -1.97532 -0.901439 
1 3.1627 -2.76353 -3.12465 
2 2.80553 -2.68055 -2.30041 
2 2.5194 -3.13654 -0.0170179 
2 3.17194 -0.819118 -3.73246 
1 2.49269 -3.63989 -0.737151 
1 2.49077 -0.868061 -3.12852 
1 3.51472 -1.00241 -2.91775 
1 2.99763 -1.73529 -3.72654 
1 3.1539 -2.65314 -0.521789 
1 3.51732 -1.09247 -1.81498 
1 3.2216 -0.323283 -1.12535 
2 3.28978 -0.761584 -0.350725 
2 2.81701 -1.09812 -1.25809 
1 3.01335 -1.97589 -1.49606 
1 2.90659 -3.56945 -2.44667 
1 3.01992 -3.04585 -1.52567 
1 2.50857 -3.70648 -3.44421 
1 2.97531 -0.318701 -2.2605 
1 2.98846 -1.5708 -0.486635 
1 2.98116 -1.8481 -2.59443 
1 3.70443 -2.50337 -2.18937 
1 2.41915 -0.683426 -0.539044 
1 3.60373 -3.71227 -0.962971 
2 3.40915 -1.18279 1.03869 
2 3.33503 -2.03423 0.150211 
1 3.3099 -3.615 0.0231242 
1 3.21691 -3.63771 1.11492 
1 2.87288 -0.608294 1.46943 
1 2.76735 -1.72681 0.772238 
1 3.1156 -2.62082 1.64101 
1 2.88594 -0.717641 0.418829 
1 3.06102 -2.748 0.553971 
2 2.58719 0.0389999 -0.0549716 
1 3.0388 0.928883 -3.48391 
1 2.99319 1.61693 -2.68707 
1 3.60527 0.524416 -2.2051 
1 3.49016 0.0506367 -0.101088 
1 2.82614 1.26047 -1.64336 
2 2.86816 0.347281 -1.66277 
1 3.59335 0.659511 -1.11502 
1 2.57398 0.494656 -0.822802 
1 3.0672 1.69687 -0.658704 
1 2.57818 0.640291 -2.49521 
2 2.46979 0.0133245 -3.11779 
1 3.79597 1.66603 -3.46018 
1 3.33878 -0.00982489 -3.20696 
1 3.43571 0.32422 1.66326 
2 3.7544 1.31292 0.630607 
1 2.95423 0.91528 0.130568 
1 2.99399 1.12988 1.17441 
1 2.49973 0.177167 0.804955 
2 3.36494 0.387654 0.755342 
2 2.56 0.359745 1.64858 
1 -2.88564 2.15596 -2.88521 
1 -2.6328 3.19591 -3.17004 
1 -2.4722 2.81263 -2.09001 
2 -3.21807 2.26548 -1.98715 
1 -3.01605 3.17757 -0.368164 
1 -3.47979 2.81982 -1.34304 
1 -2.52511 2.44893 -1.09298 
1 -3.45914 2.23193 -0.294061 
1 -1.95322 3.2728 -0.756596 
1 -3.46462 2.97689 -2.44458 
1 -2.12377 2.30867 -3.63114 
1 -2.1924 2.37962 -0.0861721 
1 -3.57031 2.72888 -3.50371 
1 -2.74707 3.63776 -1.35424 
2 -1.96287 3.42587 -1.64853 
2 -1.38859 3.0664 -0.13649 
1 -1.57615 3.22508 -3.60308 
1 -1.51386 2.90694 -2.5972 
1 -1.47794 2.70896 -1.55899 
1 -1.15125 2.38306 -0.61 
1 -1.00503 2.20695 -3.23438 
1 -0.885324 3.41058 -0.836852 
1 -0.916576 1.95404 -2.17241 
2 -0.733304 2.23513 -1.37141 
1 -0.552359 3.19693 -3.11177 
1 -0.451515 2.92497 -1.9134 
2 -0.207347 2.37582 -3.60466 
1 -0.101616 2.68878 -0.952229 
1 -0.00459634 2.39999 -2.70926 
1 0.0896376 1.94484 -1.65498 
2 0.0481488 3.4029 -0.436046 
1 0.198897 3.69365 -1.25778 
1 0.524559 3.35228 -2.77682 
1 0.586132 2.02098 -3.54198 
1 0.692434 2.8638 -1.75922 
2 0.68678 2.30198 -1.09294 
1 0.742291 2.85321 -0.342598 
2 1.03465 3.35883 -1.03953 
1 -1.17506 3.69389 -1.915 
1 1.25491 2.66702 -3.05611 
2 1.30393 3.16012 -2.31617 
1 1.30098 1.86412 -0.00704122 
1 1.52469 2.41781 -0.912786 
1 1.6176 2.32989 -2.01904 
1 1.717 3.29762 -0.323691 
1 1.80709 3.22282 -1.52069 
1 -2.37392 2.58556 0.997589 
1 -3.46995 3.13386 1.65315 
1 -3.11053 3.41858 0.688574 
2 -2.95314 2.6068 0.327908 
1 -3.42109 2.26763 1.00897 
1 -2.29753 3.62174 1.40543 
1 -2.10947 3.39732 0.300177 
2 -1.65985 3.14152 1.00589 
1 -1.51439 2.57681 1.68788 
1 -1.3249 2.4813 0.528579 
1 -1.15339 3.63148 1.51597 
1 -1.03494 3.55043 0.47192 
1 -0.815209 1.87416 1.2526 
1 -0.449677 2.92169 1.09765 
1 -0.432115 2.81793 0.0221879 
1 0.310188 3.43645 0.440434 
1 0.381979 2.34975 0.587291 
1 0.629185 3.10642 1.39711 
2 1.16618 3.60974 0.295236 
1 1.23619 1.84584 1.10176 
1 1.39859 2.78276 0.560299 
1 1.54706 3.70186 1.0901 
1 1.61409 2.78776 1.64077 
1 2.13515 3.29372 -2.53753 
1 2.11744 1.84813 1.70236 
1 2.19688 2.25746 -2.89721 
2 2.33877 2.98061 -0.86178 
1 2.31171 2.39697 -0.158571 
1 2.4328 2.60925 0.941402 
1 2.84792 2.0826 -3.71229 
1 3.04505 2.86519 -2.88878 
1 2.47209 2.25941 -1.33687 
1 3.17987 2.87278 -0.587482 
1 3.33336 2.27674 -1.95753 
1 2.9088 3.23448 -1.60958 
2 2.51688 2.60448 -2.14649 
2 3.66984 2.21951 -2.78697 
1 3.73731 3.72598 -3.20524 
1 3.18349 1.92475 0.40431 
1 2.45837 3.48505 1.63569 
2 3.16449 2.98637 1.3549 
1 3.4037 2.93287 0.499527 
1 2.46665 3.55609 0.434163 
1 3.15054 2.11232 1.55628 
1 -0.823515 0.40194 1.85206 
2 -0.0112726 0.840499 1.85414 
1 -0.790861 -0.730507 1.94541 
1 -3.36968 -2.23435 1.9292 
2 -2.7329 -2.88397 2.13535 
1 -3.45018 -3.0467 2.62174 
1 -2.2863 -2.10186 2.12425 
1 -2.32382 -2.87584 2.97811 
1 -3.02759 -2.08665 2.89907 
1 -1.88001 -3.12465 2.01776 
1 -1.13248 -2.60874 2.64513 
2 -1.03196 -3.43428 2.26682 
2 -0.993149 -2.02844 3.45064 
1 -1.81525 -1.89363 3.07318 
1 0.500763 -3.30714 2.4825 
1 -0.252735 -2.52554 3.21824 
2 -0.280052 -2.86422 2.35671 
1 0.666858 -2.30276 2.44838 
1 -0.459787 -3.56214 2.97668 
2 0.811572 -2.29252 3.32436 
1 -3.11219 -3.57129 3.49822 
1 -2.82601 -1.1411 2.49338 
1 -2.48224 -0.627868 3.39164 
2 -3.06375 -0.326776 2.74191 
1 -3.47892 -1.26103 3.40999 
2 -2.56332 -1.49056 3.30855 
1 -1.15706 -0.136855 2.75587 
1 -1.28593 -1.74853 1.94682 
1 -1.44653 -0.748922 3.60481 
1 -1.77779 -0.97949 2.50864 
1 -0.834346 -1.32789 2.91319 
1 -0.288821 -1.95487 2.24364 
1 -0.437085 -0.340657 3.58555 
1 0.236333 -1.58204 3.19806 
1 0.0231798 -0.679894 2.62315 
2 0.530569 -1.42968 2.37349 
1 0.569207 -3.16336 3.53141 
1 -1.54893 -3.61249 2.95554 
1 -1.41871 -2.80249 3.63681 
1 -2.24385 -0.0303229 2.56864 
1 0.916956 -0.746309 3.21639 
1 1.06011 -0.749371 2.16988 
1 1.34431 -1.61356 2.78002 
1 1.48381 -2.81333 2.93889 
1 -3.57007 -2.64323 3.59176 
2 1.58569 -2.27218 2.24694 
2 -1.01113 -3.69711 3.68842 
1 1.75333 -0.247485 2.82682 
2 1.78998 -2.06314 3.42587 
2 1.80016 -3.31691 3.62562 
1 -2.90779 0.341995 3.35745 
1 -3.37966 1.23473 3.08903 
1 -3.24871 0.455637 2.34805 
2 -3.01272 1.32191 2.27156 
1 -2.27313 1.00614 2.74061 
1 -1.82362 0.298718 3.54133 
1 -1.5663 1.39477 3.72499 
2 -1.64098 0.463001 2.18349 
1 -1.21313 0.916127 2.81214 
1 -0.713538 0.699447 3.72113 
1 -0.643754 1.74333 3.34764 
1 -0.461207 1.50254 2.28895 
1 -0.241294 0.472028 2.73159 
1 0.251033 1.14594 3.40984 
1 0.535649 0.150882 3.67791 
1 0.61584 1.20632 2.42125 
1 0.729871 0.143438 2.60709 
2 0.93326 1.65391 3.16623 
1 1.31165 0.818662 3.26391 
2 1.33717 1.40038 1.85978 
1 1.55844 0.633748 2.2478 
1 1.65534 1.66574 2.64646 
2 3.82487 -1.47334 2.47461 
1 1.53946 3.74405 2.16558 
1 2.08361 -1.17251 3.39837 
1 2.14042 -1.09324 2.20708 
1 2.18222 -2.96203 2.12437 
2 2.24709 0.477647 2.88221 
1 2.26966 -3.64093 2.93629 
1 2.35401 1.24696 3.28552 
1 2.32514 -2.04424 2.71377 
1 3.36524 -2.18701 2.76195 
1 3.70459 -0.586767 2.21652 
1 2.60238 -0.127576 3.48651 
1 3.67033 -0.26327 3.24097 
1 2.71442 -0.120807 2.39171 
1 3.12429 -3.5017 2.21925 
2 2.77125 -2.8591 2.76343 
1 2.41507 -2.68665 3.56448 
1 3.0352 -1.10421 2.86853 
1 3.16476 -1.5608 1.85824 
1 3.24068 -3.39008 3.30167 
1 3.18384 0.636386 2.95161 
2 3.24248 1.47825 3.24306 
1 3.51741 1.30961 2.20725 
2 3.73909 0.5415 3.60843 
1 2.5206 1.01136 2.21815 
1 2.06867 2.90305 3.73278 
1 -0.138492 3.73253 1.89402 
1 -3.3579 2.15516 2.07474 
1 -2.60719 1.97629 2.84582 
1 -2.49768 2.77873 2.07535 
1 -2.77696 2.90286 3.27004 
1 -3.51555 3.35016 2.71899 
2 -2.19315 3.57538 3.3111 
1 -2.52028 3.72802 2.48827 
2 -3.00669 2.12228 3.63937 
1 -1.80371 2.87335 2.88639 
2 -1.75783 3.39628 2.13963 
1 -1.49812 1.91983 2.63292 
2 -1.35773 2.28254 3.42376 
1 -0.907601 3.13019 2.37791 
1 -0.713439 2.87616 3.35966 
2 -0.683 2.30358 2.6619 
1 -0.11631 2.54269 2.01206 
2 -0.10553 3.07376 2.75895 
1 0.200557 2.22083 2.95875 
1 0.329114 3.1338 3.58999 
1 0.710022 3.12041 2.48067 
1 0.909348 2.16309 2.10182 
1 1.22397 2.49281 3.19913 
1 1.37027 3.56538 3.21916 
1 2.07288 2.82631 2.62606 
2 2.10396 2.14492 3.24854 
2 2.44909 2.61955 1.84791 
1 3.73652 2.23468 3.05141 
1 2.75448 1.98696 2.63236 
1 3.13954 2.90256 2.26321 
1 3.05878 3.04191 3.32685 
