ITEM: TIMESTEP
674
ITEM: NUMBER OF ATOMS
500
ITEM: BOX BOUNDS xy xz yz pp pp pp
-3.7345 3.80919 0.07469
-3.7345 3.7345 0
-3.7345 3.7345 0
ITEM: ATOMS type xu yu zu 
1 0.655788 -2.30432 2.45242 
1 -2.69239 -1.41435 -0.321674 
1 2.05419 -1.88078 -3.17103 
1 -0.326723 -0.197819 -0.0662937 
1 1.15113 -2.50061 -0.51754 
1 -1.55038 -3.61439 2.95191 
1 2.10315 3.2897 -2.53499 
1 -1.17677 -0.137189 2.75513 
1 2.2001 -0.315601 -1.48748 
1 -3.37976 -2.23437 1.93511 
1 1.2094 1.84581 1.10169 
1 -1.73209 -2.0432 1.00259 
1 -1.20187 0.0122965 -3.06261 
1 2.03707 2.90325 3.73159 
1 -2.11103 -0.505377 -2.99629 
1 0.969719 0.911565 -0.413717 
1 1.04313 -0.749693 2.17105 
1 -1.23577 0.915933 2.80974 
1 -3.35453 -2.23293 -0.186615 
1 -2.77362 -1.71164 0.710414 
1 -3.50687 1.48794 -2.3432 
1 -2.20516 -1.3831 -1.29887 
1 2.08934 1.84937 1.70296 
1 -2.40486 2.58107 0.996908 
1 -2.54224 -2.31915 -3.61552 
1 1.46152 -3.38272 -0.976344 
1 -1.81678 -1.89749 3.07542 
1 -0.691612 1.44077 -0.95853 
1 0.874679 0.971989 -3.16587 
1 -2.80456 0.160395 -2.47411 
1 3.05306 -2.75234 0.55189 
1 -2.61831 -2.65183 1.26069 
1 -1.17683 -0.799043 0.0195955 
1 3.64825 -0.256033 3.24009 
1 3.31822 -0.00808499 -3.2053 
1 -2.23998 0.832154 0.166745 
1 -2.89803 0.441714 -0.592924 
1 -1.79364 -0.981824 2.51107 
1 -2.26436 -0.0316555 2.56606 
1 2.8206 2.08614 -3.71244 
1 3.00961 -1.98032 -1.50049 
1 -0.460746 -3.56315 2.97511 
1 0.0101392 -1.89277 -2.4039 
1 0.500851 -3.30977 2.48058 
1 0.853891 -0.0677925 -2.7607 
1 3.12192 2.11469 1.55719 
1 2.40151 -0.694794 -0.540545 
1 -2.42511 1.74983 1.78212 
1 2.85685 -0.612363 1.47182 
1 0.648699 -0.698948 0.126505 
1 -1.11929 1.06126 -2.75076 
1 -1.50719 2.71024 -1.55627 
1 -3.05445 -0.978427 -2.39103 
1 -0.71438 -0.166052 0.932118 
1 2.47103 -0.86247 -3.12879 
1 -1.83533 2.86977 2.88758 
1 0.934544 -3.56488 -1.89908 
1 2.17677 -2.95964 2.12706 
1 0.880597 2.16235 2.10257 
1 -0.847245 -1.32786 2.9147 
1 -0.463025 2.81774 0.0241297 
1 0.17135 2.22108 2.95754 
1 1.82041 0.684835 -1.66253 
1 -3.38275 2.15055 2.07116 
1 0.56587 -3.16393 3.5297 
1 -3.10811 -3.57758 3.5004 
1 -1.66494 1.69728 -1.30755 
1 -3.35946 -3.30243 1.60851 
1 -0.261541 -2.52772 3.22094 
1 -0.585267 -1.84466 -0.314063 
1 -3.49221 2.97632 -2.44737 
1 -0.670987 1.74339 3.34698 
1 1.15411 -1.68323 1.70682 
1 1.3995 -1.06798 -2.8014 
1 0.60987 -3.46218 -0.356076 
1 1.35574 -3.70223 -3.18128 
1 -1.54476 2.57357 1.68453 
1 2.50758 -3.70453 -3.44373 
1 1.58933 2.33107 -2.01831 
1 -3.09958 -3.02028 -2.91974 
1 0.00560753 -0.681603 2.62463 
1 -1.29423 -3.43724 -2.93052 
1 1.92707 0.679687 -3.35964 
1 -1.0358 2.21013 -3.23667 
1 3.3061 2.27629 -1.95783 
1 -2.84906 -0.355325 1.7529 
1 -0.48542 1.5024 2.28878 
1 2.49422 -3.6443 -0.741921 
1 1.34585 0.219811 0.802377 
1 -3.20468 -0.406031 -3.31981 
1 -0.456425 -0.339142 3.58615 
1 -3.0323 -2.08263 2.90578 
1 2.17837 -2.02456 1.63592 
1 -1.07354 3.54837 0.469121 
1 0.708747 0.14211 2.60675 
1 -2.32528 -2.87466 2.97849 
1 2.69701 -0.119739 2.39234 
1 -0.524108 1.75515 0.216371 
1 -1.90979 -3.24333 -1.24423 
1 -2.07714 0.744322 -2.97876 
1 3.10542 -2.6197 1.63805 
1 0.507663 -1.71544 -0.231005 
1 -3.49161 -1.25276 3.40445 
1 1.28736 0.819349 3.26358 
1 -3.49121 2.2298 -0.292076 
1 2.97069 1.12908 1.17514 
1 0.781927 0.82061 1.44537 
1 -0.022192 -2.48813 0.318485 
1 0.222373 -1.58326 3.20152 
1 2.16646 2.2576 -2.89901 
1 3.01077 0.928006 -3.48288 
1 3.69884 -2.50799 -2.19546 
1 2.12457 -1.09253 2.20869 
1 0.800622 0.771257 -2.08925 
1 -1.5174 1.51465 -0.15866 
1 3.68872 -0.587561 2.21703 
1 -2.55996 1.73667 -1.88784 
1 0.300935 -2.22781 -3.37855 
1 -2.77999 3.63733 -1.35803 
1 1.58462 -0.303478 -3.54497 
1 -2.49975 -0.619912 3.39402 
1 2.97018 -1.85253 -2.5952 
1 2.28213 -2.27296 -0.0134748 
1 2.26866 -3.63912 2.93886 
1 1.56121 1.71908 -3.61829 
1 2.17366 -2.60441 -1.01764 
1 1.77325 1.37062 -2.51409 
1 -2.14819 3.39715 0.300138 
1 -1.12035 0.517502 0.0542323 
1 3.01907 -1.10114 2.87029 
1 2.72841 1.98729 2.63223 
1 -0.271399 -1.16418 0.454241 
1 -1.64009 -3.31738 -0.225977 
1 -0.130618 0.363571 -2.9177 
1 -0.941992 3.1285 2.37525 
1 -1.13685 -2.61063 2.64151 
1 0.081118 -2.57096 -0.766212 
1 -1.74567 0.713464 -0.860668 
1 1.94131 -1.119 1.08023 
1 -0.838949 1.8746 1.2514 
1 -2.55611 3.72709 2.49036 
1 2.28314 2.39672 -0.157127 
1 0.465737 -0.0135659 -0.77933 
1 -2.46769 -2.35237 -0.868233 
1 -2.27047 -3.66934 -2.42454 
1 -3.50306 3.12971 1.65439 
1 2.11725 -2.92368 -2.8532 
1 2.14438 1.60034 0.564454 
1 1.50697 3.70356 1.09198 
1 -2.88001 1.64573 0.408948 
1 1.62459 -3.1707 0.137487 
1 -3.45224 2.26777 1.00349 
1 2.58156 -0.123354 3.4873 
1 -0.807728 -0.728928 1.9441 
1 2.97919 -1.57713 -0.492005 
1 0.161128 3.69426 -1.25797 
1 -3.04296 -0.432054 0.0802622 
1 -1.87629 -2.53793 -2.78909 
1 -0.74597 2.87488 3.35685 
1 3.2219 -3.63824 1.11485 
1 2.95525 -0.317332 -2.25804 
1 -0.268156 1.06838 -2.11552 
1 -2.84072 -1.1375 2.49234 
1 -3.60078 2.72798 -3.50477 
1 2.35772 -1.1776 -2.0719 
1 3.70803 2.23824 3.04768 
1 1.47796 -2.81198 2.94163 
1 2.87517 3.23246 -1.61334 
1 3.23842 -3.38225 3.30349 
1 -2.55335 2.44735 -1.09479 
1 3.14848 2.86914 -0.592556 
1 -0.147417 2.54197 2.01057 
1 3.50434 -1.0917 -1.81766 
1 2.04189 2.82562 2.62567 
1 -0.478657 -0.942627 -1.65617 
1 -2.3357 3.61813 1.4056 
1 -2.22524 -3.3449 -3.46264 
1 1.27278 1.86602 -0.00585499 
1 -3.4061 1.23798 3.08404 
1 1.49662 2.41679 -0.910676 
1 0.182014 1.67871 1.45986 
1 -2.66773 -2.86127 -1.87301 
1 0.469644 -0.941676 -2.24062 
1 -3.04771 3.17411 -0.370776 
1 3.01497 2.86503 -2.88764 
1 1.17686 -2.49168 -1.57314 
1 -2.21664 2.37945 -0.0886725 
1 -2.93009 0.347248 3.35781 
1 2.55569 0.64201 -2.49439 
1 2.47783 0.172758 0.807479 
1 2.08358 -2.21196 -2.05067 
1 -3.34669 -0.204777 -1.62489 
1 1.33362 3.56552 3.22246 
1 0.0615161 1.94614 -1.65426 
1 -2.527 2.77802 2.0755 
1 -0.299253 -1.95557 2.24605 
1 -1.19223 3.63111 1.51453 
1 -1.52532 1.91854 2.62909 
1 0.114302 -1.15962 1.62367 
1 -2.29539 1.00499 2.73841 
1 0.132758 -0.0473431 1.68982 
1 -0.490303 -3.33253 -0.203127 
1 -0.541102 -1.93918 1.14031 
1 -0.742582 -3.09924 -1.26118 
1 0.225671 0.938089 -1.19796 
1 -3.56009 -1.10625 -0.83857 
1 3.15289 -1.56329 1.86514 
1 -3.66277 -0.374649 0.95754 
1 -1.20646 3.69824 -1.90752 
1 0.940312 -0.673044 1.1462 
1 3.02841 3.04666 3.32853 
1 -2.57037 1.46365 -0.681982 
1 -0.945892 1.9558 -2.17494 
1 -3.49243 1.71654 -1.27257 
1 1.10865 -0.218243 -1.69688 
1 0.660072 2.86551 -1.76051 
1 2.87169 -0.71938 0.420315 
1 2.80137 1.26021 -1.64282 
1 -2.49924 2.81108 -2.09265 
1 -1.72081 -1.73056 -0.0628979 
1 -1.35372 2.4784 0.531335 
1 3.76745 1.66433 -3.46261 
1 -2.63231 1.97406 2.84409 
1 -2.13245 -0.923157 0.473679 
1 -2.34238 -2.56268 0.212854 
1 0.491146 3.35153 -2.77744 
1 1.22437 2.66803 -3.05543 
1 1.33197 -1.61373 2.78195 
1 0.516352 0.150377 3.67753 
1 -0.940298 -2.69532 -2.22712 
1 2.32769 1.24914 3.28617 
1 3.49246 1.30628 2.20061 
1 2.42317 3.48824 1.63308 
1 -0.0692169 -0.982784 -0.692031 
1 -0.443587 -0.651625 -2.7092 
1 -2.4103 0.657897 1.72939 
1 1.77153 3.22433 -1.51794 
1 -1.53737 2.91186 -2.59383 
1 0.371888 -0.834254 -3.35857 
1 2.06712 -1.16819 3.39895 
1 -0.409253 -3.31086 0.900886 
1 1.86049 -0.197997 1.65777 
1 0.710983 2.85572 -0.342706 
1 0.351812 2.35043 0.588568 
1 -2.67129 -1.33868 -3.3113 
1 3.15794 -2.76407 -3.12761 
1 3.35995 -2.18724 2.7789 
1 2.40013 2.60747 0.941355 
1 -3.26979 0.453925 2.34707 
1 1.68589 3.29802 -0.323094 
1 -3.30654 1.22895 1.39513 
1 -2.24201 -1.20801 1.51898 
1 -1.59367 1.39537 3.72199 
1 -1.90365 1.79984 -2.70853 
1 3.58356 0.523701 -2.20523 
1 1.97273 1.41712 -0.762142 
1 -0.312808 -3.29249 -3.38384 
1 2.9799 -1.72657 -3.72324 
1 -2.64547 1.34736 -3.65572 
1 -0.581142 3.19944 -3.11696 
1 0.331609 0.22693 0.622963 
1 -1.46476 -0.750686 3.60391 
1 1.12722 -2.12033 -2.57841 
1 -3.5525 3.35524 2.71939 
1 -3.32843 0.72898 -3.13414 
1 2.44397 2.25685 -1.33666 
1 -1.34778 -0.645649 -2.17942 
1 1.19383 2.49278 3.19863 
1 1.58181 2.78835 1.6403 
1 3.41538 0.32207 1.66105 
1 1.23579 -2.78655 1.62005 
1 0.225119 1.1451 3.41152 
1 -2.44344 0.0190166 0.857329 
1 3.15027 -2.65655 -0.522177 
1 -3.58317 1.18274 -0.253027 
1 -1.40922 -2.81001 3.63552 
1 -1.29568 -1.74728 1.94769 
1 -3.27651 0.567175 0.537099 
1 0.294379 1.79959 -0.490286 
1 -2.80963 -2.06095 -2.51646 
1 1.53478 0.634003 2.24717 
1 -1.61669 -1.68701 -3.37959 
1 -0.739394 0.700074 3.71956 
1 0.505757 1.28787 0.504183 
1 -0.0363663 2.40109 -2.70909 
1 -1.75289 -3.15322 0.892808 
1 -0.992146 -1.60817 -2.48178 
1 1.55275 -2.12246 0.758675 
1 3.56958 0.657962 -1.11679 
1 2.49495 1.01387 2.2185 
1 3.10431 2.90711 2.2634 
1 2.40793 -2.68178 3.56648 
1 3.2014 -0.326196 -1.1258 
1 3.02093 -3.05017 -1.52619 
1 1.34537 -2.62968 -3.49487 
1 -0.175845 3.7323 1.89265 
1 0.70252 -3.12199 0.728163 
1 -3.14855 3.41267 0.687612 
1 -2.62218 -0.516165 -0.878108 
1 -2.1547 2.3092 -3.63564 
1 -1.88369 -3.12436 2.01574 
1 -3.57555 -3.52409 -2.0444 
1 3.69843 3.72487 -3.20784 
1 2.96488 1.61915 -2.68817 
1 0.38996 -1.68222 -1.37309 
1 1.32662 -1.38484 -1.79569 
1 -0.422029 0.895914 0.990782 
1 0.296046 3.13431 3.58776 
1 -0.125755 0.831431 -0.194349 
1 2.75724 -1.73233 0.777294 
1 -3.50804 2.81916 -1.34498 
1 -0.919237 3.4113 -0.829555 
1 0.556273 2.02248 -3.54223 
1 -3.33732 -1.2629 1.52155 
1 0.779268 1.78902 -2.46368 
1 1.5041 3.74256 2.1674 
1 -1.96674 -0.110442 -0.160603 
1 3.15416 1.92118 0.405008 
1 2.4296 3.55929 0.441109 
1 -2.96535 0.802055 -1.61429 
1 0.276772 3.43677 0.441701 
1 0.536483 -1.76046 0.853162 
1 -0.576325 -1.35902 -3.50972 
1 -0.647693 -2.00077 -1.47306 
1 -1.60645 3.2236 -3.60201 
1 1.08791 1.54357 -1.38707 
1 3.03896 1.69357 -0.657669 
1 1.12033 -1.60427 -3.65139 
1 -2.8123 2.89966 3.26363 
1 1.62806 1.66645 2.64688 
1 0.590696 1.20517 2.42267 
1 -1.22004 -1.28421 -0.919897 
1 -0.482918 2.92583 1.09852 
1 -2.29492 -2.10071 2.12753 
1 1.90155 0.672746 0.0448174 
1 -1.01445 0.308668 -1.9946 
1 1.73452 -0.245868 2.8268 
1 -1.9012 1.61214 0.865381 
1 3.12284 -3.49619 2.22168 
1 0.900052 -0.747034 3.21706 
1 -1.17736 2.38064 -0.60999 
1 -0.219187 1.44982 -3.13095 
1 -3.37547 -3.01472 0.529257 
1 3.15879 0.641417 2.95182 
1 1.89016 -0.193823 -2.47869 
1 -2.73045 -3.3185 -0.400892 
1 1.05785 -0.915254 -0.861479 
1 -0.939398 -2.78779 1.63604 
1 -1.76736 -2.23511 -1.74688 
1 -2.02944 -1.4017 -2.40193 
1 2.9067 -3.56835 -2.44841 
1 -2.66135 3.19393 -3.17349 
1 3.46587 0.048859 -0.103287 
1 -3.19558 -1.8285 -1.55405 
1 0.677195 3.11867 2.48139 
1 3.30653 -3.61766 0.020579 
1 2.92765 0.91166 0.132087 
1 1.53903 -1.54614 -0.170129 
1 3.36454 2.93117 0.497827 
1 -1.55419 0.585765 1.00818 
1 -1.25049 -1.07848 1.05268 
1 -1.94798 0.828879 -1.92601 
1 -3.69367 -1.26419 0.235563 
1 1.55235 0.0383529 -0.72268 
1 0.160898 -2.75242 -1.81737 
1 -0.483872 2.92598 -1.91291 
1 2.31782 -2.04057 2.71564 
1 -1.56478 -0.30476 -1.14615 
1 -0.662272 0.319567 -0.985791 
1 2.03661 -3.29268 -1.86286 
1 2.0689 -1.55682 -1.08236 
1 0.16013 -2.70054 1.57763 
1 3.60787 -3.71503 -0.963194 
1 -2.91468 2.15449 -2.88844 
1 -1.48486 1.25389 1.81723 
1 3.49288 -1.00037 -2.91493 
1 1.89401 0.911925 1.31524 
1 0.039853 0.0115809 -1.84026 
1 -1.72545 -0.257282 1.63254 
1 -3.44904 -3.04469 2.62809 
1 -0.844372 0.400343 1.85042 
1 -0.262925 0.471712 2.73063 
1 -1.37497 -2.41807 -0.76343 
1 -0.747143 -2.34317 -3.20349 
1 -3.72486 -2.07085 0.945367 
1 2.1767 -2.99066 1.0575 
1 1.71825 -0.544318 0.215144 
1 0.59546 3.10595 1.39841 
1 -0.133359 2.68953 -0.951426 
1 2.55185 0.490927 -0.819334 
1 -3.55981 -2.65028 3.60195 
1 0.615668 -3.05339 -2.78321 
1 -1.08206 -2.55887 0.32655 
1 -0.318985 -3.55297 -2.30631 
1 -1.84273 0.298779 3.53821 
1 -2.30656 -0.477761 -1.86455 
1 -3.44451 -2.77149 -1.15351 
1 1.36706 2.78412 0.56082 
1 -3.57791 -1.91272 -3.18356 
1 -1.98732 3.27441 -0.756886 
2 2.48853 2.59889 -2.14793 
2 3.72868 1.31102 0.629726 
2 1.31158 1.40077 1.86007 
2 -1.83282 0.0891729 -2.39759 
2 2.80461 -1.10376 -1.26124 
2 0.997479 3.3621 -1.04046 
2 1.36624 1.11193 0.606251 
2 0.0953695 -0.553036 0.946709 
2 1.21769 -1.26941 0.577239 
2 -1.66207 0.461956 2.18134 
2 -1.42954 3.05803 -0.134332 
2 2.55873 0.0295345 -0.0533805 
2 -2.97853 2.6042 0.324245 
2 -1.03247 -3.43466 2.26427 
2 -1.38768 2.27886 3.42118 
2 -3.24546 2.26521 -1.98887 
2 -3.4586 -0.225285 -0.741616 
2 -3.20084 0.346038 1.3878 
2 3.21657 1.48116 3.24581 
2 -1.75129 -3.05055 -2.09207 
2 -0.712201 2.30256 2.66036 
2 3.32258 -2.03593 0.150816 
2 -2.57173 0.995607 0.949865 
2 -3.03522 1.31929 2.26833 
2 3.34208 0.384312 0.754326 
2 1.38852 -2.93023 -2.3457 
2 1.2708 3.16328 -2.31645 
2 3.64129 2.21892 -2.78869 
2 1.19683 -1.77555 -0.99405 
2 -1.26969 -0.927623 -3.01506 
2 2.51526 -3.13821 -0.024098 
2 -1.79351 3.39547 2.14094 
2 1.1308 3.60889 0.294135 
2 1.03419 0.567116 -1.24129 
2 2.76387 -2.85577 2.76613 
2 0.90554 1.65388 3.16669 
2 3.39514 -1.18495 1.04013 
2 3.1543 -0.812073 -3.73051 
2 -0.175293 -2.72895 -2.66835 
2 -1.13623 1.25759 0.611194 
2 0.618004 -1.52028 -2.91574 
2 2.799 -2.68257 -2.29873 
2 -1.57366 -0.255737 0.671546 
2 0.381928 -0.700262 -1.39785 
2 -1.01708 -1.66328 0.443442 
2 -0.762354 2.23212 -1.3724 
2 -2.87019 -0.790072 0.93257 
2 -1.69605 3.1395 1.00393 
2 2.30506 2.97661 -0.862252 
2 -0.997803 -2.02745 3.45657 
2 -1.01119 -3.69367 3.68706 
2 2.44851 0.0184216 -3.11811 
2 2.32876 1.4602 -3.27688 
2 0.658223 2.30573 -1.09319 
2 0.0136223 3.40462 -0.434877 
2 -1.09903 1.16718 -1.76089 
2 1.79731 -3.31411 3.62812 
2 -3.0377 2.12108 3.6354 
2 -0.280623 -2.86456 2.35785 
2 -2.56121 -1.48216 3.30097 
2 3.66402 -1.97955 -0.90242 
2 -2.22707 3.56854 3.31347 
2 -0.237489 2.37801 -3.60534 
2 0.663011 -3.09484 -1.16809 
2 -2.55614 0.155301 -3.36184 
2 1.94787 1.58189 -1.65499 
2 -0.806458 -0.520947 -0.755846 
2 3.71568 0.5495 3.60779 
2 1.48221 0.55789 -2.59842 
2 -2.72539 1.06275 -2.46476 
2 -2.73589 -2.88414 2.13709 
2 3.81187 -1.47312 2.48039 
2 0.857088 -2.36678 0.285638 
2 -3.61443 -1.66307 -2.35517 
2 2.22662 0.479315 2.88188 
2 -1.99422 3.42619 -1.64833 
2 -0.0352208 0.840545 1.85382 
2 -3.08362 -0.326023 2.74615 
2 1.00973 0.106778 -0.0150342 
2 0.663187 -3.49028 1.5973 
2 3.13068 2.98787 1.3544 
2 -1.41196 -1.41708 -1.74605 
2 -2.34468 0.221871 -1.31543 
2 -1.92973 -0.946279 -0.489017 
2 -2.98537 -0.989548 -1.51776 
2 -0.13928 3.07442 2.75608 
2 0.516535 -1.43122 2.37664 
2 2.07628 2.14526 3.24849 
2 2.41679 2.62217 1.84616 
2 2.33485 -1.33609 0.102763 
2 -2.58373 -3.35115 0.659024 
2 0.802991 -2.29232 3.32696 
2 1.78074 -2.05984 3.42816 
2 3.27309 -0.7662 -0.351102 
2 -3.61864 -0.283176 -2.50051 
2 2.53988 0.362031 1.64976 
2 1.57686 -2.27133 2.25027 
2 2.84255 0.346964 -1.66085 
2 1.0207 0.0334675 1.73996 
2 -3.57232 -3.08976 -0.342046 
