ITEM: TIMESTEP
732
ITEM: NUMBER OF ATOMS
500
ITEM: BOX BOUNDS xy xz yz pp pp pp
-3.7345 3.8316 0.097097
-3.7345 3.7345 0
-3.7345 3.7345 0
ITEM: ATOMS type xu yu zu 
1 -2.80132 -2.05908 -2.51145 
1 -3.10199 -3.01388 -2.92176 
1 -2.54329 -2.31768 -3.61741 
1 -2.22775 -3.34386 -3.46172 
1 -1.87406 -2.53697 -2.79218 
1 -0.940133 -2.69488 -2.22977 
2 -1.75143 -3.05099 -2.09484 
1 -0.742513 -2.34478 -3.20686 
1 0.305986 -2.22598 -3.37979 
1 -0.311281 -3.29537 -3.38349 
2 -0.173977 -2.72865 -2.66799 
1 0.616201 -3.05279 -2.78408 
1 -3.19159 -0.40478 -3.31906 
1 -3.04529 -0.977234 -2.38813 
1 -2.66372 -1.33809 -3.30737 
1 -2.29549 -0.477514 -1.86378 
1 -2.10133 -0.502449 -2.99722 
1 -2.01993 -1.39945 -2.40306 
1 -0.983926 -1.60914 -2.48461 
1 -1.61055 -1.68634 -3.3812 
2 -1.26266 -0.927439 -3.01384 
1 -1.33611 -0.646802 -2.17666 
1 0.0182169 -1.89252 -2.40404 
1 0.381696 -0.834676 -3.35914 
2 0.626896 -1.52057 -2.91605 
1 -0.434056 -0.653345 -2.71096 
1 0.480378 -0.941414 -2.24229 
1 -0.568161 -1.36039 -3.51107 
1 -2.66812 -2.86318 -1.87255 
1 -3.4434 -2.77081 -1.15311 
1 -2.72897 -3.3176 -0.399983 
1 -2.46416 -2.35283 -0.869579 
1 -3.34901 -2.23163 -0.188388 
2 -3.57074 -3.08864 -0.342049 
1 -1.6384 -3.3179 -0.227314 
1 -1.7673 -2.23662 -1.74931 
1 -1.90894 -3.24418 -1.24564 
1 -1.37139 -2.41852 -0.766387 
1 -0.742683 -3.10137 -1.26506 
1 -0.643843 -2.00263 -1.47481 
1 0.162663 -2.75329 -1.81802 
1 0.0794225 -2.57255 -0.767873 
1 -0.490776 -3.33351 -0.20474 
1 0.609737 -3.46367 -0.356608 
2 0.664015 -3.09458 -1.16803 
1 -3.18901 -1.82779 -1.55089 
1 -3.55143 -1.10478 -0.837496 
1 -3.3356 -0.204823 -1.6248 
2 -2.97517 -0.989473 -1.5155 
1 -2.61118 -0.515429 -0.877315 
1 -2.68399 -1.41418 -0.321918 
2 -3.44672 -0.223582 -0.741483 
1 -2.19561 -1.38305 -1.2982 
2 -1.40291 -1.42225 -1.74742 
1 -1.55454 -0.300055 -1.14604 
2 -1.91977 -0.945389 -0.489107 
1 -1.20967 -1.27919 -0.922939 
2 -0.798629 -0.515853 -0.752119 
1 -0.582156 -1.84383 -0.314425 
1 -0.464609 -0.948645 -1.66138 
1 0.395946 -1.68392 -1.37237 
1 -0.0636444 -0.981833 -0.693591 
2 0.393074 -0.703109 -1.39838 
2 -3.60558 -1.66225 -2.35326 
1 -1.95526 -0.110039 -0.159122 
2 -3.60707 -0.28223 -2.50134 
1 -1.29528 -3.43688 -2.9323 
1 -3.57498 -3.52263 -2.04568 
1 -2.27247 -3.66961 -2.42507 
1 -0.315483 -0.197839 -0.0644296 
1 0.509016 -1.71698 -0.231838 
1 -0.320382 -3.55295 -2.30573 
1 0.866775 -0.0683954 -2.76144 
1 0.933828 -3.56591 -1.89977 
1 -3.5693 -1.91782 -3.17948 
1 1.12079 -0.220072 -1.69647 
1 1.12807 -1.60464 -3.65203 
1 1.1346 -2.12206 -2.5804 
1 1.06729 -0.917088 -0.860662 
1 1.18011 -2.49409 -1.57608 
2 1.20371 -1.77792 -0.995011 
1 1.14808 -2.50338 -0.520593 
1 1.34934 -2.63058 -3.49629 
1 1.41049 -1.06993 -2.80139 
1 1.33352 -1.38796 -1.79576 
1 1.35359 -3.70212 -3.18345 
2 1.3895 -2.9342 -2.34842 
1 1.46184 -3.38403 -0.97737 
1 1.59699 -0.30516 -3.54512 
1 1.54018 -1.55175 -0.167751 
1 0.476489 -0.0151276 -0.779975 
1 -1.18991 0.0124484 -3.06167 
1 -1.71241 -1.72968 -0.066032 
1 1.90192 -0.194966 -2.47928 
1 -3.35888 -3.30055 1.60465 
1 -3.3718 -3.01201 0.528112 
1 -2.61403 -2.65145 1.25937 
2 -2.58096 -3.34952 0.657637 
1 -2.33684 -2.56082 0.211322 
1 -1.74998 -3.1523 0.89258 
1 -1.07876 -2.55923 0.324813 
1 -0.936973 -2.78764 1.63738 
1 -1.72642 -2.04179 1.00082 
1 -0.0185171 -2.48972 0.316086 
1 0.163377 -2.70255 1.5783 
1 -0.408493 -3.3095 0.900604 
2 0.666296 -3.49099 1.59848 
1 0.704059 -3.12299 0.728249 
1 0.542209 -1.76408 0.853205 
2 0.862231 -2.36808 0.284945 
1 -2.76743 -1.71068 0.710263 
2 -2.8598 -0.789165 0.933611 
1 -3.32894 -1.26186 1.52134 
1 -2.23349 -1.20749 1.51885 
1 -2.83813 -0.355262 1.75501 
1 -2.12268 -0.924048 0.473834 
2 -1.01148 -1.66393 0.444493 
1 -1.71418 -0.256803 1.63354 
1 -1.24139 -1.07814 1.05354 
2 -1.56325 -0.256301 0.672978 
1 -0.535101 -1.94135 1.14 
1 -0.704038 -0.165654 0.933217 
1 -0.263966 -1.16605 0.455277 
1 0.12375 -1.15969 1.62217 
2 0.104402 -0.553608 0.945696 
1 0.655893 -0.702385 0.126846 
1 -3.65222 -0.373743 0.957776 
1 0.144141 -0.0475041 1.68978 
1 -3.03135 -0.431941 0.0812479 
1 -3.6854 -1.26277 0.235137 
1 1.16191 -1.68254 1.70543 
1 0.949912 -0.668645 1.14561 
2 1.22429 -1.27128 0.581357 
1 1.2394 -2.78652 1.6184 
1 1.55813 -2.12503 0.759897 
1 -1.16702 -0.799395 0.0203765 
1 1.62557 -3.1696 0.13631 
1 1.72468 -0.550452 0.214919 
1 1.87077 -0.197218 1.65593 
1 -3.49049 1.488 -2.34268 
1 -3.3155 0.72862 -3.13417 
2 -2.70982 1.06357 -2.46365 
1 -2.792 0.162322 -2.47229 
1 -2.06084 0.745051 -2.97566 
1 -2.54385 1.73671 -1.88619 
1 -2.8841 0.442551 -0.591212 
1 -2.95141 0.802305 -1.61291 
1 -2.55572 1.4651 -0.680869 
2 -2.33183 0.222312 -1.31411 
1 -3.47676 1.71666 -1.27246 
1 -3.56758 1.18429 -0.252512 
1 -2.62938 1.34666 -3.65359 
1 -1.93333 0.828093 -1.92321 
1 -1.88645 1.8002 -2.70602 
2 -1.81989 0.0883597 -2.39567 
1 -1.73446 0.715463 -0.857575 
1 -1.64857 1.69751 -1.30675 
1 -1.50217 1.51613 -0.157382 
1 -1.10246 1.06205 -2.75102 
2 -1.08315 1.16666 -1.75937 
1 -1.00069 0.308282 -1.99553 
1 -0.67528 1.44294 -0.956907 
1 -0.650465 0.32272 -0.985515 
1 -0.25284 1.06755 -2.11478 
1 -0.201067 1.44845 -3.13072 
2 -2.54686 0.161775 -3.35811 
1 -0.111612 0.831014 -0.193329 
1 -0.117899 0.361846 -2.91631 
1 0.240251 0.93807 -1.19716 
1 0.310615 1.79924 -0.489149 
1 0.795825 1.78764 -2.4634 
1 0.814287 0.769673 -2.08914 
1 0.889932 0.971379 -3.16621 
1 0.983645 0.910164 -0.413232 
2 1.04726 0.565287 -1.241 
2 1.01679 0.103201 -0.016881 
1 1.10384 1.54277 -1.38719 
2 1.49616 0.557669 -2.59893 
1 1.56407 0.0372874 -0.721304 
1 1.57857 1.71861 -3.61808 
1 0.0518407 0.0099545 -1.83903 
1 1.78883 1.3703 -2.5151 
1 1.83309 0.686119 -1.66264 
2 -3.18826 0.345851 1.38839 
2 -2.55808 0.997727 0.951754 
1 -3.29404 1.22864 1.3969 
1 -2.86469 1.64664 0.409926 
1 -3.26261 0.568032 0.537861 
1 -2.39736 0.65794 1.73038 
1 -2.41206 1.74997 1.78155 
1 -2.22573 0.83317 0.168769 
1 -1.88554 1.61371 0.866138 
1 -1.54144 0.586285 1.00921 
1 -1.47178 1.2547 1.81851 
2 -1.12152 1.25757 0.612029 
1 -2.43145 0.0186934 0.858766 
1 -0.508017 1.75499 0.217651 
1 -1.10752 0.518141 0.0549616 
1 -0.407617 0.895722 0.991334 
1 0.197744 1.67855 1.4599 
1 0.344497 0.225957 0.624026 
1 0.521665 1.28705 0.504498 
1 0.796695 0.819857 1.44494 
2 1.03196 0.0339136 1.74226 
1 1.36003 0.221871 0.796956 
2 1.38291 1.11428 0.604783 
1 1.90743 0.911829 1.31524 
1 1.91751 0.67653 0.0421337 
1 1.94212 0.678137 -3.36042 
2 1.96404 1.58269 -1.65582 
1 1.94863 -1.1196 1.08242 
1 1.98934 1.41957 -0.763418 
1 2.06235 -1.88309 -3.17338 
1 2.03692 -3.29243 -1.86249 
1 2.07448 -1.55257 -1.07857 
1 2.08891 -2.21123 -2.05063 
1 2.11952 -2.92452 -2.85303 
1 2.16137 1.60186 0.565844 
1 2.17291 -2.60227 -1.01723 
1 2.21254 -0.312447 -1.48803 
1 2.18102 -2.99359 1.05617 
1 2.18571 -2.02588 1.6349 
1 2.28679 -2.27227 -0.0130994 
2 2.34496 1.45868 -3.27594 
1 -3.71991 -2.06859 0.94494 
2 3.66762 -1.97735 -0.901962 
1 3.16072 -2.76383 -3.12597 
2 2.80275 -2.68158 -2.29955 
2 2.51763 -3.13739 -0.020793 
2 3.16486 -0.816462 -3.73157 
1 2.49341 -3.64238 -0.739522 
1 2.48275 -0.865544 -3.12848 
1 3.50577 -1.0017 -2.91644 
1 2.99026 -1.7315 -3.72466 
1 3.15253 -2.65491 -0.522097 
1 3.51189 -1.09227 -1.81627 
1 3.21288 -0.324898 -1.12554 
2 3.28246 -0.764023 -0.351054 
2 2.81185 -1.10127 -1.25968 
1 3.01228 -1.97847 -1.49829 
1 2.9066 -3.569 -2.44765 
1 3.02074 -3.04833 -1.52605 
1 2.50811 -3.70567 -3.44399 
1 2.96709 -0.318075 -2.25936 
1 2.98476 -1.57416 -0.489432 
1 2.97668 -1.85022 -2.5946 
1 2.3649 -1.17651 -2.0697 
1 3.70234 -2.5056 -2.19234 
1 2.41124 -0.689816 -0.540197 
1 3.60589 -3.71381 -0.963255 
2 3.4033 -1.1838 1.03915 
2 3.32953 -2.03511 0.150441 
1 3.30825 -3.61633 0.0216655 
1 3.21946 -3.63806 1.11479 
1 2.86643 -0.610195 1.47043 
1 2.76318 -1.72976 0.774791 
1 3.11113 -2.62038 1.63946 
1 2.88003 -0.718641 0.419467 
1 3.05748 -2.75025 0.552798 
2 2.33605 -1.33205 0.102332 
2 2.57411 0.0337125 -0.0544771 
1 3.02736 0.928214 -3.48346 
1 2.98176 1.61786 -2.68766 
1 3.5964 0.524205 -2.20502 
1 3.47946 0.0495162 -0.101946 
1 2.81636 1.26034 -1.64298 
2 2.85733 0.347164 -1.66185 
1 3.58371 0.658486 -1.11556 
1 2.56499 0.49287 -0.821015 
1 3.05583 1.69539 -0.658123 
1 2.56893 0.641132 -2.49475 
2 2.46117 0.0156972 -3.11805 
1 3.78442 1.6653 -3.46129 
1 3.33047 -0.00933683 -3.20625 
1 3.4278 0.32314 1.66237 
2 3.74359 1.31157 0.630389 
1 2.94342 0.913535 0.131406 
1 2.98481 1.12924 1.17492 
1 2.49059 0.17494 0.805934 
2 3.35546 0.385836 0.75505 
2 2.55228 0.36068 1.64899 
1 -2.89716 2.1554 -2.88679 
1 -2.64386 3.19531 -3.17177 
1 -2.48178 2.8115 -2.09189 
2 -3.22866 2.26531 -1.98779 
1 -3.02834 3.17604 -0.369497 
1 -3.49098 2.81896 -1.34356 
1 -2.53595 2.44849 -1.09413 
1 -3.47225 2.2311 -0.293254 
1 -1.9668 3.27408 -0.75693 
1 -3.47487 2.97649 -2.44574 
1 -2.13613 2.30908 -3.63324 
1 -2.2011 2.3801 -0.087618 
1 -3.58244 2.72857 -3.50435 
1 -2.76005 3.63686 -1.3567 
2 -1.97496 3.42605 -1.64874 
2 -1.40686 3.06138 -0.135061 
1 -1.58799 3.22463 -3.60265 
1 -1.52113 2.91011 -2.59535 
1 -1.48907 2.7099 -1.55742 
1 -1.16107 2.3818 -0.609857 
1 -1.01745 2.20876 -3.23582 
1 -0.898721 3.41105 -0.832131 
1 -0.928189 1.9554 -2.17382 
2 -0.744986 2.23334 -1.37167 
1 -0.562883 3.19842 -3.11541 
1 -0.464368 2.92561 -1.91322 
2 -0.219385 2.37699 -3.60553 
1 -0.114514 2.68921 -0.951869 
1 -0.0177964 2.40053 -2.70945 
1 0.0783237 1.94563 -1.65448 
2 0.0342992 3.40373 -0.435344 
1 0.183655 3.69389 -1.25784 
1 0.511307 3.35167 -2.77712 
1 0.574132 2.02186 -3.54224 
1 0.679415 2.86455 -1.76007 
2 0.675426 2.30406 -1.09303 
1 0.729716 2.85428 -0.34253 
2 1.01955 3.36007 -1.03998 
1 -1.18688 3.69654 -1.91059 
1 1.2429 2.66737 -3.05556 
2 1.29079 3.1617 -2.31628 
1 1.28993 1.86507 -0.00626446 
1 1.51366 2.41738 -0.911665 
1 1.60638 2.33037 -2.01881 
1 1.70477 3.29774 -0.323148 
1 1.79273 3.22341 -1.51953 
1 -2.38614 2.5833 0.997022 
1 -3.48279 3.13221 1.65415 
1 -3.12627 3.41551 0.688118 
2 -2.9625 2.60554 0.325864 
1 -3.4337 2.26834 1.00624 
1 -2.31298 3.61968 1.40536 
1 -2.12562 3.39779 0.3 
2 -1.6746 3.14035 1.00433 
1 -1.52642 2.5752 1.68586 
1 -1.33591 2.47937 0.530145 
1 -1.16936 3.63132 1.51479 
1 -1.05065 3.54911 0.469859 
1 -0.823891 1.87426 1.25212 
1 -0.463005 2.92394 1.09812 
1 -0.443904 2.81733 0.023372 
1 0.297154 3.43656 0.441183 
1 0.369963 2.34985 0.588244 
1 0.615833 3.10607 1.39782 
2 1.15227 3.60955 0.295026 
1 1.22567 1.84597 1.10193 
1 1.38584 2.78359 0.560834 
1 1.53082 3.70277 1.09129 
1 1.60127 2.78802 1.6408 
1 2.12256 3.2916 -2.53649 
1 2.10625 1.84864 1.70284 
1 2.18477 2.25736 -2.89812 
2 2.32486 2.97847 -0.861946 
1 2.30038 2.39683 -0.157663 
1 2.83718 2.08416 -3.71242 
1 3.03339 2.86511 -2.88809 
1 2.46096 2.25817 -1.3368 
1 3.16715 2.87095 -0.590085 
1 3.3226 2.27647 -1.95775 
1 2.8954 3.23345 -1.61155 
2 2.50571 2.60175 -2.14722 
2 3.65855 2.21931 -2.78781 
1 3.72174 3.72547 -3.20643 
1 3.17179 1.92297 0.404742 
1 2.44448 3.48651 1.63442 
2 3.15125 2.98696 1.35465 
1 3.38705 2.9321 0.498465 
1 2.41958 2.60847 0.941528 
1 2.45177 3.55778 0.437699 
1 3.13913 2.11328 1.55659 
1 -0.831774 0.40118 1.85111 
2 -0.0208477 0.840408 1.85391 
1 -0.797516 -0.729371 1.9444 
1 -3.37399 -2.23438 1.9318 
2 -2.73421 -2.88378 2.13614 
1 -3.44956 -3.04596 2.62463 
1 -2.28937 -2.10135 2.12576 
1 -2.32354 -2.87559 2.97842 
1 -3.02892 -2.08553 2.90187 
1 -1.88186 -3.12459 2.01634 
1 -1.13462 -2.60957 2.64278 
2 -1.03201 -3.43432 2.26492 
2 -0.995206 -2.02774 3.45446 
1 -1.81534 -1.89565 3.07462 
1 0.500921 -3.30855 2.4813 
1 -0.257623 -2.5265 3.22001 
2 -0.280021 -2.86426 2.35748 
1 0.662035 -2.30364 2.45042 
1 -0.460232 -3.56264 2.97562 
2 0.8082 -2.29226 3.32563 
1 -3.10999 -3.57403 3.4993 
1 -2.83221 -1.13987 2.4928 
1 -2.48964 -0.624532 3.39238 
2 -3.07172 -0.326543 2.74333 
1 -3.4839 -1.25817 3.4075 
2 -2.562 -1.48722 3.30539 
1 -1.16507 -0.13707 2.75548 
1 -1.28956 -1.74748 1.94695 
1 -1.45423 -0.749559 3.60446 
1 -1.78444 -0.980703 2.50977 
1 -0.839829 -1.32808 2.91411 
1 -0.293143 -1.95526 2.24501 
1 -0.445149 -0.339814 3.58599 
1 0.230299 -1.58286 3.19996 
1 0.0158253 -0.680938 2.62411 
2 0.524872 -1.43049 2.37542 
1 0.567474 -3.1633 3.53022 
1 -1.54938 -3.61366 2.95302 
1 -1.41186 -2.80756 3.63604 
1 -2.25198 -0.0308514 2.56751 
1 0.91 -0.746837 3.21679 
1 1.05325 -0.749638 2.17056 
1 1.33924 -1.6138 2.78114 
1 1.48136 -2.81274 2.94033 
1 -3.56499 -2.64656 3.59648 
2 1.58202 -2.27189 2.24869 
2 -1.01133 -3.69513 3.68748 
1 1.7457 -0.246648 2.82699 
2 1.7862 -2.06163 3.42717 
2 1.7989 -3.31558 3.62707 
1 -2.91682 0.344236 3.35757 
1 -3.39061 1.23589 3.08699 
1 -3.25694 0.454912 2.34756 
2 -3.02176 1.32088 2.27031 
1 -2.2821 1.00571 2.7396 
1 -1.83142 0.298717 3.54024 
1 -1.57751 1.39516 3.72346 
2 -1.64928 0.462444 2.18219 
1 -1.22234 0.915991 2.81087 
1 -0.724482 0.699729 3.72014 
1 -0.654763 1.74328 3.34701 
1 -0.470691 1.50228 2.28879 
1 -0.250051 0.471832 2.73105 
1 0.240525 1.1454 3.4106 
1 0.528042 0.150502 3.67771 
1 0.605757 1.20564 2.42195 
1 0.721234 0.142647 2.60698 
2 0.922017 1.65392 3.16639 
1 1.30167 0.819044 3.26383 
2 1.32697 1.40051 1.86 
1 1.5488 0.633868 2.24769 
1 1.64444 1.66601 2.64678 
2 3.81935 -1.47352 2.47757 
1 1.52553 3.74331 2.16664 
1 2.07691 -1.17066 3.39883 
1 2.13384 -1.09288 2.20801 
1 2.17991 -2.96097 2.12572 
2 2.23974 0.478092 2.88231 
1 2.26904 -3.63996 2.93774 
1 2.34349 1.24789 3.28577 
1 3.3632 -2.1875 2.77002 
1 3.69812 -0.58741 2.21659 
1 2.59415 -0.126307 3.48685 
1 3.6616 -0.260765 3.24054 
1 2.70753 -0.120625 2.39194 
1 3.12371 -3.49918 2.2204 
2 2.76792 -2.85777 2.76486 
1 2.32225 -2.04257 2.71481 
1 2.41205 -2.68437 3.56554 
1 3.0286 -1.10324 2.8694 
1 3.15998 -1.562 1.8614 
1 3.23965 -3.38655 3.30257 
1 3.17384 0.638205 2.95183 
2 3.23198 1.47942 3.24412 
1 3.50747 1.3081 2.20439 
2 3.72955 0.544169 3.60842 
1 2.51035 1.01227 2.21843 
1 2.05597 2.90312 3.73234 
1 -0.153461 3.73241 1.89302 
1 -3.36749 2.15305 2.07285 
1 -2.61735 1.97526 2.84517 
1 -2.50891 2.77829 2.07544 
1 -2.79097 2.90156 3.26709 
1 -3.53064 3.35246 2.71972 
2 -2.20633 3.57272 3.31182 
1 -2.53484 3.72764 2.489 
2 -3.01919 2.12191 3.63765 
1 -1.81609 2.87157 2.88694 
2 -1.77215 3.39633 2.14042 
1 -1.50922 1.91913 2.63078 
2 -1.36986 2.28043 3.42225 
1 -0.92131 3.12929 2.37599 
1 -0.726762 2.87543 3.35772 
2 -0.694785 2.30294 2.66074 
1 -0.128631 2.54212 2.01114 
2 -0.119104 3.07404 2.75724 
1 0.188839 2.22094 2.95808 
1 0.315824 3.13409 3.58856 
1 0.697046 3.1195 2.48105 
1 0.897962 2.16264 2.10235 
1 1.21206 2.49279 3.19872 
1 1.35535 3.56554 3.22096 
1 2.06091 2.82626 2.62605 
2 2.09313 2.14515 3.2485 
2 2.43621 2.62075 1.84717 
1 3.72525 2.23617 3.04957 
1 2.74407 1.98724 2.63215 
1 3.12554 2.9046 2.2631 
1 3.04649 3.04391 3.32736 
