ITEM: TIMESTEP
731
ITEM: NUMBER OF ATOMS
500
ITEM: BOX BOUNDS xy xz yz pp pp pp
-3.7345 3.82413 0.089628
-3.7345 3.7345 0
-3.7345 3.7345 0
ITEM: ATOMS type xu yu zu 
1 0.660604 -2.30364 2.45042 
1 -2.68631 -1.41418 -0.321918 
1 2.0605 -1.88309 -3.17338 
1 -0.319019 -0.197839 -0.0644296 
1 1.14685 -2.50338 -0.520593 
1 -1.5495 -3.61366 2.95302 
1 2.11554 3.2916 -2.53649 
1 -1.16866 -0.13707 2.75548 
1 2.20911 -0.312447 -1.48803 
1 -3.37549 -2.23438 1.9318 
1 1.22009 1.84597 1.10193 
1 -1.72811 -2.04179 1.00082 
1 -1.19366 0.0124484 -3.06167 
1 2.04933 2.90312 3.73234 
1 -2.10456 -0.502449 -2.99722 
1 0.979001 0.910164 -0.413232 
1 1.05026 -0.749638 2.17056 
1 -1.22699 0.915991 2.81087 
1 -3.35051 -2.23163 -0.188388 
1 -2.76945 -1.71068 0.710263 
1 -3.49571 1.488 -2.34268 
1 -2.19796 -1.38305 -1.2982 
1 2.10067 1.84864 1.70284 
1 -2.39246 2.5833 0.997022 
1 -2.5447 -2.31768 -3.61741 
1 1.46149 -3.38403 -0.97737 
1 -1.81718 -1.89565 3.07462 
1 -0.680457 1.44294 -0.956907 
1 0.885226 0.971379 -3.16621 
1 -2.7959 0.162322 -2.47229 
1 3.05649 -2.75025 0.552798 
1 -2.61512 -2.65145 1.25937 
1 -1.16996 -0.799395 0.0203765 
1 3.65813 -0.260765 3.24054 
1 3.32675 -0.00933683 -3.20625 
1 -2.2303 0.83317 0.168769 
1 -2.88827 0.442551 -0.591212 
1 -1.7872 -0.980703 2.50977 
1 -2.25568 -0.0308514 2.56751 
1 2.83137 2.08416 -3.71242 
1 3.01053 -1.97847 -1.49829 
1 -0.460404 -3.56264 2.97562 
1 0.0163749 -1.89252 -2.40404 
1 0.500495 -3.30855 2.4813 
1 0.863109 -0.0683954 -2.76144 
1 3.13328 2.11328 1.55659 
1 2.40819 -0.689816 -0.540197 
1 -2.41755 1.74997 1.78155 
1 2.8633 -0.610195 1.47043 
1 0.652861 -0.702385 0.126846 
1 -1.10726 1.06205 -2.75102 
1 -1.49551 2.7099 -1.55742 
1 -3.04805 -0.977234 -2.38813 
1 -0.707607 -0.165654 0.933217 
1 2.47988 -0.865544 -3.12848 
1 -1.8227 2.87157 2.88694 
1 0.93366 -3.56591 -1.89977 
1 2.17914 -2.96097 2.12572 
1 0.892065 2.16264 2.10235 
1 -0.842236 -1.32808 2.91411 
1 -0.450456 2.81733 0.023372 
1 0.182884 2.22094 2.95808 
1 1.82867 0.686119 -1.66264 
1 -3.37338 2.15305 2.07285 
1 0.566902 -3.1633 3.53022 
1 -3.11015 -3.57403 3.4993 
1 -1.654 1.69751 -1.30675 
1 -3.35931 -3.30055 1.60465 
1 -0.258831 -2.5265 3.22001 
1 -0.584046 -1.84383 -0.314425 
1 -3.48158 2.97649 -2.44574 
1 -0.660241 1.74328 3.34701 
1 1.15986 -1.68254 1.70543 
1 1.40783 -1.06993 -2.80139 
1 0.609466 -3.46367 -0.356608 
1 1.35356 -3.70212 -3.18345 
1 -1.53273 2.5752 1.68586 
1 2.50808 -3.70567 -3.44399 
1 1.60032 2.33037 -2.01881 
1 -3.10271 -3.01388 -2.92176 
1 0.0127717 -0.680938 2.62411 
1 -1.29558 -3.43688 -2.9323 
1 1.93771 0.678137 -3.36042 
1 -1.02339 2.20876 -3.23582 
1 3.31659 2.27647 -1.95775 
1 -2.84151 -0.355262 1.75501 
1 -0.475928 1.50228 2.28879 
1 2.49332 -3.64238 -0.739522 
1 1.35608 0.221871 0.796956 
1 -3.19492 -0.40478 -3.31906 
1 -0.448544 -0.339814 3.58599 
1 -3.03057 -2.08553 2.90187 
1 2.184 -2.02588 1.6349 
1 -1.05793 3.54911 0.469859 
1 0.717356 0.142647 2.60698 
1 -2.3244 -2.87559 2.97842 
1 2.70392 -0.120625 2.39194 
1 -0.513506 1.75499 0.217651 
1 -1.90943 -3.24418 -1.24564 
1 -2.06532 0.745051 -2.97566 
1 3.11002 -2.62038 1.63946 
1 0.506999 -1.71698 -0.231838 
1 -3.48638 -1.25817 3.4075 
1 1.29711 0.819044 3.26383 
1 -3.47821 2.2311 -0.293254 
1 2.97994 1.12924 1.17492 
1 0.792141 0.819857 1.44494 
1 -0.0197619 -2.48972 0.316086 
1 0.228147 -1.58286 3.19996 
1 2.17878 2.25736 -2.89812 
1 3.0227 0.928214 -3.48346 
1 3.70111 -2.5056 -2.19234 
1 2.1312 -1.09288 2.20801 
1 0.809783 0.769673 -2.08914 
1 -1.50742 1.51613 -0.157382 
1 3.69497 -0.58741 2.21659 
1 -2.54932 1.73671 -1.88619 
1 0.304477 -2.22598 -3.37979 
1 -2.76742 3.63686 -1.3567 
1 1.59356 -0.30516 -3.54512 
1 -2.49275 -0.624532 3.39238 
1 2.97479 -1.85022 -2.5946 
1 2.28533 -2.27227 -0.0130994 
1 2.26894 -3.63996 2.93774 
1 1.57311 1.71861 -3.61808 
1 2.17178 -2.60227 -1.01723 
1 1.78373 1.3703 -2.5151 
1 -2.13275 3.39779 0.3 
1 -1.11177 0.518141 0.0549616 
1 3.02597 -1.10324 2.8694 
1 2.73835 1.98724 2.63215 
1 -0.266534 -1.16605 0.455277 
1 -1.63882 -3.3179 -0.227314 
1 -0.121995 0.361846 -2.91631 
1 -0.928174 3.12929 2.37599 
1 -1.13575 -2.60957 2.64278 
1 0.0782606 -2.57255 -0.767873 
1 -1.73891 0.715463 -0.857575 
1 1.94602 -1.1196 1.08242 
1 -0.8295 1.87426 1.25212 
1 -2.54231 3.72764 2.489 
1 2.29425 2.39683 -0.157663 
1 0.472769 -0.0151276 -0.779975 
1 -2.46554 -2.35283 -0.869579 
1 -2.27253 -3.66961 -2.42507 
1 -3.48966 3.13221 1.65415 
1 2.11871 -2.92452 -2.85303 
1 2.15604 1.60186 0.565844 
1 1.52339 3.70277 1.09129 
1 -2.87007 1.64664 0.409926 
1 1.625 -3.1696 0.13631 
1 -3.43971 2.26834 1.00624 
1 2.59054 -0.126307 3.48685 
1 -0.800521 -0.729371 1.9444 
1 2.9826 -1.57416 -0.489432 
1 0.176226 3.69389 -1.25784 
1 -3.03465 -0.431941 0.0812479 
1 -1.87526 -2.53697 -2.79218 
1 -0.733372 2.87543 3.35772 
1 3.21936 -3.63806 1.11479 
1 2.96368 -0.318075 -2.25936 
1 -0.257642 1.06755 -2.11478 
1 -2.8348 -1.13987 2.4928 
1 -3.5889 2.72857 -3.50435 
1 2.36234 -1.17651 -2.0697 
1 3.71928 2.23617 3.04957 
1 1.48044 -2.81274 2.94033 
1 2.88843 3.23345 -1.61155 
1 3.2393 -3.38655 3.30257 
1 -2.54213 2.44849 -1.09413 
1 3.16055 2.87095 -0.590085 
1 -0.134908 2.54212 2.01114 
1 3.50925 -1.09227 -1.81627 
1 2.05435 2.82626 2.62605 
1 -0.467395 -0.948645 -1.66138 
1 -2.32033 3.61968 1.40536 
1 -2.22814 -3.34386 -3.46172 
1 1.28433 1.86507 -0.00626446 
1 -3.39558 1.23589 3.08699 
1 1.50751 2.41738 -0.911665 
1 0.192331 1.67855 1.4599 
1 -2.66899 -2.86318 -1.87255 
1 0.477585 -0.941414 -2.24229 
1 -3.03525 3.17604 -0.369497 
1 3.02679 2.86511 -2.88809 
1 1.17886 -2.49409 -1.57608 
1 -2.20722 2.3801 -0.087618 
1 -2.9209 0.344236 3.35757 
1 2.56456 0.641132 -2.49475 
1 2.48668 0.17494 0.805934 
1 2.08738 -2.21123 -2.05063 
1 -3.33913 -0.204823 -1.6248 
1 1.34805 3.56554 3.22096 
1 0.0726436 1.94563 -1.65448 
1 -2.51542 2.77829 2.07544 
1 -0.294922 -1.95526 2.24501 
1 -1.17672 3.63132 1.51479 
1 -1.51488 1.91913 2.63078 
1 0.121175 -1.15969 1.62217 
1 -2.28684 1.00571 2.7396 
1 0.140454 -0.0475041 1.68978 
1 -0.491177 -3.33351 -0.20474 
1 -0.536894 -1.94135 1.14 
1 -0.743316 -3.10137 -1.26506 
1 0.235579 0.93807 -1.19716 
1 -3.55406 -1.10478 -0.837496 
1 3.15781 -1.562 1.8614 
1 -3.65558 -0.373743 0.957776 
1 -1.19431 3.69654 -1.91059 
1 0.946847 -0.668645 1.14561 
1 3.03971 3.04391 3.32736 
1 -2.56092 1.4651 -0.680869 
1 -0.933879 1.9554 -2.17382 
1 -3.48221 1.71666 -1.27246 
1 1.11728 -0.220072 -1.69647 
1 0.672816 2.86455 -1.76007 
1 2.87702 -0.718641 0.419467 
1 2.81137 1.26034 -1.64298 
1 -2.48833 2.8115 -2.09189 
1 -1.71441 -1.72968 -0.066032 
1 -1.34212 2.47937 0.530145 
1 3.77902 1.6653 -3.46129 
1 -2.62306 1.97526 2.84517 
1 -2.12549 -0.924048 0.473834 
1 -2.33801 -2.56082 0.211322 
1 0.50422 3.35167 -2.77712 
1 1.2365 2.66737 -3.05556 
1 1.33712 -1.6138 2.78114 
1 0.524157 0.150502 3.67771 
1 -0.941172 -2.69488 -2.22977 
1 2.33851 1.24789 3.28577 
1 3.50243 1.3081 2.20439 
1 2.43726 3.48651 1.63442 
1 -0.066397 -0.981833 -0.693591 
1 -0.437137 -0.653345 -2.71096 
1 -2.40175 0.65794 1.73038 
1 1.78577 3.22341 -1.51953 
1 -1.52777 2.91011 -2.59535 
1 0.378796 -0.834676 -3.35914 
1 2.07434 -1.17066 3.39883 
1 -0.408918 -3.3095 0.900604 
1 1.86723 -0.197218 1.65593 
1 0.723127 2.85428 -0.34253 
1 0.363879 2.34985 0.588244 
1 -2.66611 -1.33809 -3.30737 
1 3.15975 -2.76383 -3.12597 
1 3.36166 -2.1875 2.77002 
1 2.41324 2.60847 0.941528 
1 -3.26112 0.454912 2.34756 
1 1.69774 3.29774 -0.323148 
1 -3.299 1.22864 1.3969 
1 -2.23602 -1.20749 1.51885 
1 -1.58264 1.39516 3.72346 
1 -1.89198 1.8002 -2.70602 
1 3.59215 0.524205 -2.20502 
1 1.98419 1.41957 -0.763418 
1 -0.31172 -3.29537 -3.38349 
1 2.98825 -1.7315 -3.72466 
1 -2.63446 1.34666 -3.65359 
1 -0.569816 3.19842 -3.11541 
1 0.340537 0.225957 0.624026 
1 -1.45721 -0.749559 3.60446 
1 1.13298 -2.12206 -2.5804 
1 -3.53773 3.35246 2.71972 
1 -3.31997 0.72862 -3.13417 
1 2.45497 2.25817 -1.3368 
1 -1.3392 -0.646802 -2.17666 
1 1.20584 2.49279 3.19872 
1 1.59475 2.78802 1.6408 
1 3.42374 0.32314 1.66237 
1 1.23845 -2.78652 1.6184 
1 0.235645 1.1454 3.4106 
1 -2.4352 0.0186934 0.858766 
1 3.15145 -2.65491 -0.522097 
1 -3.5725 1.18429 -0.252512 
1 -1.41278 -2.80756 3.63604 
1 -1.29154 -1.74748 1.94695 
1 -3.26691 0.568032 0.537861 
1 0.305082 1.79924 -0.489149 
1 -2.803 -2.05908 -2.51145 
1 1.54443 0.633868 2.24769 
1 -1.6126 -1.68634 -3.3812 
1 -0.728917 0.699729 3.72014 
1 0.516643 1.28705 0.504498 
1 -0.0239314 2.40053 -2.70945 
1 -1.75056 -3.1523 0.89258 
1 -0.986051 -1.60914 -2.48461 
1 1.55652 -2.12503 0.759897 
1 3.57931 0.658486 -1.11556 
1 2.5056 1.01227 2.21843 
1 3.1189 2.9046 2.2631 
1 2.411 -2.68437 3.56554 
1 3.20947 -0.324898 -1.12554 
1 3.02005 -3.04833 -1.52605 
1 1.34823 -2.63058 -3.49629 
1 -0.160928 3.73241 1.89302 
1 0.703447 -3.12299 0.728249 
1 -3.13342 3.41551 0.688118 
1 -2.61439 -0.515429 -0.877315 
1 -2.14218 2.30908 -3.63324 
1 -1.88247 -3.12459 2.01634 
1 -3.57519 -3.52263 -2.04568 
1 3.71428 3.72547 -3.20643 
1 2.9764 1.61786 -2.68766 
1 0.393895 -1.68392 -1.37237 
1 1.33118 -1.38796 -1.79576 
1 -0.412247 0.895722 0.991334 
1 0.308956 3.13409 3.58856 
1 -0.116178 0.831014 -0.193329 
1 2.76118 -1.72976 0.774791 
1 -3.49754 2.81896 -1.34356 
1 -0.905867 3.41105 -0.832131 
1 0.568375 2.02186 -3.54224 
1 -3.33141 -1.26186 1.52134 
1 0.790303 1.78764 -2.4634 
1 1.51805 3.74331 2.16664 
1 -1.95888 -0.110039 -0.159122 
1 3.16613 1.92297 0.404742 
1 2.44448 3.55778 0.437699 
1 -2.95595 0.802305 -1.61291 
1 0.289983 3.43656 0.441183 
1 0.540239 -1.76408 0.853205 
1 -0.570535 -1.36039 -3.51107 
1 -0.645575 -2.00263 -1.47481 
1 -1.59495 3.22463 -3.60265 
1 1.09856 1.54277 -1.38719 
1 3.0504 1.69539 -0.658123 
1 1.12594 -1.60464 -3.65203 
1 -2.79761 2.90156 3.26709 
1 1.63904 1.66601 2.64678 
1 0.600817 1.20564 2.42195 
1 -1.21213 -1.27919 -0.922939 
1 -0.469664 2.92394 1.09812 
1 -2.29101 -2.10135 2.12576 
1 1.9131 0.67653 0.0421337 
1 -1.00473 0.308282 -1.99553 
1 1.74221 -0.246648 2.82699 
1 -1.89088 1.61371 0.866138 
1 3.12347 -3.49918 2.2204 
1 0.907013 -0.746837 3.21679 
1 -1.16719 2.3818 -0.609857 
1 -0.20625 1.44845 -3.13072 
1 -3.37252 -3.01201 0.528112 
1 3.16947 0.638205 2.95183 
1 1.89838 -0.194966 -2.47928 
1 -2.72939 -3.3176 -0.399983 
1 1.06447 -0.917088 -0.860662 
1 -0.93792 -2.78764 1.63738 
1 -1.76879 -2.23662 -1.74931 
1 -2.02227 -1.39945 -2.40306 
1 2.90643 -3.569 -2.44765 
1 -2.65079 3.19531 -3.17177 
1 3.47568 0.0495162 -0.101946 
1 -3.19092 -1.82779 -1.55089 
1 0.690192 3.1195 2.48105 
1 3.30813 -3.61633 0.0216655 
1 2.93877 0.913535 0.131406 
1 1.538 -1.55175 -0.167751 
1 3.38039 2.9321 0.498465 
1 -1.54576 0.586285 1.00921 
1 -1.24404 -1.07814 1.05354 
1 -1.93789 0.828093 -1.92321 
1 -3.68787 -1.26277 0.235137 
1 1.5603 0.0372874 -0.721304 
1 0.161682 -2.75329 -1.81802 
1 -0.471029 2.92561 -1.91322 
1 2.32056 -2.04257 2.71481 
1 -1.55798 -0.300055 -1.14604 
1 -0.654522 0.32272 -0.985515 
1 2.03647 -3.29243 -1.86249 
1 2.0723 -1.55257 -1.07857 
1 0.162345 -2.70255 1.5783 
1 3.60587 -3.71381 -0.963255 
1 -2.90305 2.1554 -2.88679 
1 -1.47677 1.2547 1.81851 
1 3.50304 -1.0017 -2.91644 
1 1.90278 0.911829 1.31524 
1 0.0480962 0.0099545 -1.83903 
1 -1.71766 -0.256803 1.63354 
1 -3.45025 -3.04596 2.62463 
1 -0.83591 0.40118 1.85111 
1 -0.254258 0.471832 2.73105 
1 -1.37271 -2.41852 -0.766387 
1 -0.743903 -2.34478 -3.20686 
1 -3.72157 -2.06859 0.94494 
1 2.18028 -2.99359 1.05617 
1 1.7215 -0.550452 0.214919 
1 0.608993 3.10607 1.39782 
1 -0.120938 2.68921 -0.951869 
1 2.56076 0.49287 -0.821015 
1 -3.56607 -2.64656 3.59648 
1 0.615519 -3.05279 -2.78408 
1 -1.07994 -2.55923 0.324813 
1 -0.320564 -3.55295 -2.30573 
1 -1.83545 0.298717 3.54024 
1 -2.29875 -0.477514 -1.86378 
1 -3.44437 -2.77081 -1.15311 
1 1.37932 2.78359 0.560834 
1 -3.57111 -1.91782 -3.17948 
1 -1.97381 3.27408 -0.75693 
2 2.49937 2.60175 -2.14722 
2 3.73854 1.31157 0.630389 
2 1.32184 1.40051 1.86 
2 -1.82372 0.0883597 -2.39567 
2 2.80922 -1.10127 -1.25968 
2 1.01246 3.36007 -1.03998 
2 1.37806 1.11428 0.604783 
2 0.101221 -0.553608 0.945696 
2 1.22182 -1.27128 0.581357 
2 -1.65347 0.462444 2.18219 
2 -1.41365 3.06138 -0.135061 
2 2.57034 0.0337125 -0.0544771 
2 -2.96884 2.60554 0.325864 
2 -1.03231 -3.43432 2.26492 
2 -1.37587 2.28043 3.42225 
2 -3.23466 2.26531 -1.98779 
2 -3.45023 -0.223582 -0.741483 
2 -3.19234 0.345851 1.38839 
2 3.22676 1.47942 3.24412 
2 -1.75212 -3.05099 -2.09484 
2 -0.700823 2.30294 2.66074 
2 3.32783 -2.03511 0.150441 
2 -2.56281 0.997727 0.951754 
2 -3.02682 1.32088 2.27031 
2 3.35134 0.385836 0.75505 
2 1.38869 -2.9342 -2.34842 
2 1.28389 3.1617 -2.31628 
2 3.6526 2.21931 -2.78781 
2 1.20175 -1.77792 -0.995011 
2 -1.26546 -0.927439 -3.01384 
2 2.51703 -3.13739 -0.020793 
2 -1.77928 3.39633 2.14042 
2 1.14493 3.60955 0.295026 
2 1.04296 0.565287 -1.241 
2 2.76704 -2.85777 2.76486 
2 0.916629 1.65392 3.16639 
2 3.40075 -1.1838 1.03915 
2 3.16194 -0.816462 -3.73157 
2 -0.174983 -2.72865 -2.66799 
2 -1.12651 1.25757 0.612029 
2 0.624682 -1.52057 -2.91605 
2 2.80169 -2.68158 -2.29955 
2 -1.56673 -0.256301 0.672978 
2 0.390042 -0.703109 -1.39838 
2 -1.01355 -1.66393 0.444493 
2 -0.750954 2.23334 -1.37167 
2 -2.86274 -0.789165 0.933611 
2 -1.68147 3.14035 1.00433 
2 2.31814 2.97847 -0.861946 
2 -0.996913 -2.02774 3.45446 
2 -1.01137 -3.69513 3.68748 
2 2.45742 0.0156972 -3.11805 
2 2.33977 1.45868 -3.27594 
2 0.669388 2.30406 -1.09303 
2 0.027161 3.40373 -0.435344 
2 -1.08805 1.16666 -1.75937 
2 1.79848 -3.31558 3.62707 
2 -3.02505 2.12191 3.63765 
2 -0.280892 -2.86426 2.35748 
2 -2.56425 -1.48722 3.30539 
2 3.66586 -1.97735 -0.901962 
2 -2.21364 3.57272 3.31182 
2 -0.225496 2.37699 -3.60553 
2 0.663375 -3.09458 -1.16803 
2 -2.55076 0.161775 -3.35811 
2 1.95872 1.58269 -1.65582 
2 -0.801848 -0.515853 -0.752119 
2 3.72528 0.544169 3.60842 
2 1.49187 0.557669 -2.59893 
2 -2.71462 1.06357 -2.46365 
2 -2.73506 -2.88378 2.13614 
2 3.81709 -1.47352 2.47757 
2 0.860865 -2.36808 0.284945 
2 -3.60765 -1.66225 -2.35326 
2 2.23553 0.478092 2.88231 
2 -1.98212 3.42605 -1.64874 
2 -0.0254226 0.840408 1.85391 
2 -3.07513 -0.326543 2.74333 
2 1.01295 0.103201 -0.016881 
2 0.666053 -3.49099 1.59848 
2 3.14453 2.98696 1.35465 
2 -1.40523 -1.42225 -1.74742 
2 -2.33578 0.222312 -1.31411 
2 -1.92255 -0.945389 -0.489107 
2 -2.97791 -0.989473 -1.5155 
2 -0.125912 3.07404 2.75724 
2 0.522568 -1.43049 2.37542 
2 2.08725 2.14515 3.2485 
2 2.42986 2.62075 1.84717 
2 2.33365 -1.33205 0.102332 
2 -2.58134 -3.34952 0.657637 
2 0.806758 -2.29226 3.32563 
2 1.78453 -2.06163 3.42717 
2 3.27949 -0.764023 -0.351054 
2 -3.61052 -0.28223 -2.50134 
2 2.54818 0.36068 1.64899 
2 1.58055 -2.27189 2.24869 
2 2.85324 0.347164 -1.66185 
2 1.02819 0.0339136 1.74226 
2 -3.57139 -3.08864 -0.342049 
