ITEM: TIMESTEP
851
ITEM: NUMBER OF ATOMS
500
ITEM: BOX BOUNDS xy xz yz pp pp pp
-3.7345 3.86147 0.126973
-3.7345 3.7345 0
-3.7345 3.7345 0
ITEM: ATOMS type xu yu zu 
1 -2.79171 -2.05622 -2.50384 
1 -3.1073 -3.00416 -2.92396 
1 -2.54604 -2.31638 -3.62027 
1 -2.2344 -3.34364 -3.45952 
1 -1.87405 -2.53502 -2.79561 
1 -0.941487 -2.69363 -2.23726 
2 -1.75215 -3.05245 -2.0993 
1 -0.734779 -2.3502 -3.21649 
1 0.314057 -2.22194 -3.38197 
1 -0.306984 -3.3041 -3.38156 
2 -0.172207 -2.72757 -2.66776 
1 0.617042 -3.05145 -2.78582 
1 -3.17376 -0.403017 -3.31787 
1 -3.03303 -0.976246 -2.38427 
1 -2.65335 -1.33819 -3.30205 
1 -2.28023 -0.479663 -1.86358 
1 -2.08768 -0.500803 -2.99766 
1 -2.00611 -1.39965 -2.40477 
1 -0.971465 -1.61312 -2.49153 
1 -1.60154 -1.6871 -3.38515 
2 -1.25348 -0.929108 -3.0128 
1 -1.31952 -0.651846 -2.17268 
1 0.0316247 -1.89131 -2.40396 
1 0.395985 -0.835158 -3.36038 
2 0.64103 -1.52061 -2.91656 
1 -0.421371 -0.658094 -2.71529 
1 0.496961 -0.940113 -2.24566 
1 -0.555766 -1.3644 -3.5146 
1 -2.66781 -2.86528 -1.87082 
1 -3.44149 -2.76987 -1.15187 
1 -2.72623 -3.31712 -0.394407 
1 -2.45731 -2.35552 -0.870118 
1 -3.34022 -2.22947 -0.19138 
2 -3.5682 -3.08675 -0.341646 
1 -1.63624 -3.32161 -0.228567 
1 -1.76681 -2.24119 -1.75077 
1 -1.90569 -3.24786 -1.24768 
1 -1.3634 -2.42323 -0.769639 
1 -0.74385 -3.10672 -1.27675 
1 -0.639342 -2.00694 -1.4787 
1 0.165329 -2.75444 -1.81979 
1 0.071507 -2.57588 -0.77182 
1 -0.494712 -3.33696 -0.209264 
1 0.608212 -3.46557 -0.357424 
2 0.664658 -3.09328 -1.16771 
1 -3.17954 -1.82708 -1.54525 
1 -3.53906 -1.10251 -0.835715 
1 -3.31956 -0.204582 -1.62467 
2 -2.96071 -0.990023 -1.51245 
1 -2.59545 -0.515144 -0.876815 
1 -2.67192 -1.41415 -0.322222 
2 -3.42933 -0.221366 -0.741402 
1 -2.18112 -1.38453 -1.29677 
2 -1.38861 -1.43393 -1.7506 
1 -1.54104 -0.291764 -1.14791 
2 -1.90518 -0.944646 -0.490409 
1 -1.19324 -1.26949 -0.929679 
2 -0.790651 -0.504838 -0.743595 
1 -0.579807 -1.84097 -0.314047 
1 -0.442268 -0.960925 -1.6722 
1 0.405045 -1.68778 -1.36965 
1 -0.0586859 -0.979203 -0.69708 
2 0.409879 -0.709548 -1.39894 
2 -3.59443 -1.66032 -2.35136 
1 -1.93994 -0.110687 -0.157461 
2 -3.59135 -0.281073 -2.50246 
1 -1.298 -3.43426 -2.93835 
1 -3.57365 -3.51997 -2.04653 
1 -2.27676 -3.67011 -2.42537 
1 -0.300816 -0.197699 -0.0603029 
1 0.506904 -1.71924 -0.232047 
1 -0.323086 -3.55266 -2.30331 
1 0.884969 -0.0689742 -2.76269 
1 0.932676 -3.56785 -1.90072 
1 -3.55803 -1.92457 -3.17459 
1 1.13774 -0.223426 -1.6949 
1 1.13938 -1.60483 -3.65381 
1 1.14669 -2.12516 -2.58409 
1 1.08091 -0.92088 -0.85769 
1 1.1848 -2.49869 -1.58204 
2 1.21582 -1.78262 -0.997265 
1 1.13707 -2.5084 -0.527583 
1 1.35568 -2.63176 -3.49926 
1 1.42757 -1.07335 -2.80167 
1 1.34325 -1.39308 -1.79567 
1 1.35008 -3.70223 -3.18859 
2 1.39025 -2.94197 -2.35359 
1 1.46199 -3.38564 -0.978777 
1 1.61372 -0.307374 -3.54537 
1 1.53827 -1.56425 -0.162575 
1 0.490877 -0.0181584 -0.779953 
1 -1.17416 0.0110336 -3.06143 
1 -1.69989 -1.72876 -0.0738769 
1 1.91774 -0.196541 -2.47938 
1 -3.35913 -3.29744 1.59878 
1 -3.3648 -3.00716 0.526156 
1 -2.60868 -2.65106 1.25726 
2 -2.57391 -3.34715 0.652838 
1 -2.32688 -2.55735 0.20962 
1 -1.74467 -3.149 0.895478 
1 -1.07516 -2.56055 0.321367 
1 -0.931913 -2.78869 1.64323 
1 -1.71875 -2.03822 0.997108 
1 -0.0142993 -2.49454 0.309704 
1 0.168699 -2.7051 1.57967 
1 -0.406577 -3.30588 0.901041 
2 0.671236 -3.49216 1.60098 
1 0.7059 -3.12475 0.728692 
1 0.547515 -1.77507 0.854722 
2 0.869221 -2.37128 0.282838 
1 -2.75884 -1.70878 0.710517 
2 -2.84495 -0.788082 0.935382 
1 -3.31699 -1.26009 1.522 
1 -2.22144 -1.20609 1.51897 
1 -2.8234 -0.354964 1.75796 
1 -2.10846 -0.926488 0.474036 
2 -1.0061 -1.6651 0.446652 
1 -1.69863 -0.255307 1.63536 
1 -1.22864 -1.07733 1.05592 
2 -1.54905 -0.256918 0.674638 
1 -0.528774 -1.94742 1.13888 
1 -0.690523 -0.164958 0.9359 
1 -0.25527 -1.16963 0.459618 
1 0.136156 -1.15904 1.61749 
2 0.117029 -0.552816 0.941969 
1 0.662157 -0.70908 0.128086 
1 -3.6376 -0.372105 0.957938 
1 0.159569 -0.0467887 1.68866 
1 -3.01417 -0.432182 0.0827546 
1 -3.67309 -1.26018 0.234878 
1 1.17266 -1.6808 1.70217 
1 0.963042 -0.661579 1.14404 
2 1.22963 -1.27777 0.589166 
1 1.24487 -2.78695 1.61561 
1 1.56447 -2.13137 0.762387 
1 -1.15341 -0.801408 0.0219566 
1 1.62593 -3.16691 0.133278 
1 1.72811 -0.56266 0.212088 
1 1.88445 -0.196352 1.65251 
1 -3.46801 1.48763 -2.34202 
1 -3.29767 0.727902 -3.13475 
2 -2.68735 1.06461 -2.46231 
1 -2.77496 0.164319 -2.46972 
1 -2.03817 0.743187 -2.97168 
1 -2.52254 1.73744 -1.88401 
1 -2.8646 0.443176 -0.589162 
1 -2.9325 0.803379 -1.61132 
1 -2.53757 1.46657 -0.67847 
2 -2.31579 0.221754 -1.31464 
1 -3.45593 1.71803 -1.27273 
1 -3.54659 1.18612 -0.252262 
1 -2.60713 1.34538 -3.64986 
1 -1.91348 0.826136 -1.91997 
1 -1.8643 1.79712 -2.70308 
2 -1.80194 0.0849407 -2.39244 
1 -1.72292 0.717705 -0.853366 
1 -1.62794 1.69679 -1.30489 
1 -1.48235 1.5178 -0.157339 
1 -1.07914 1.06122 -2.75165 
2 -1.06286 1.1628 -1.75512 
1 -0.982141 0.304724 -1.99803 
1 -0.653052 1.44802 -0.955639 
1 -0.63632 0.329681 -0.985421 
1 -0.233653 1.06418 -2.11106 
1 -0.175299 1.44513 -3.12811 
2 -2.53282 0.168105 -3.35401 
1 -0.0954801 0.831282 -0.190839 
1 -0.101571 0.357571 -2.91227 
1 0.260114 0.937706 -1.19427 
1 0.331863 1.79818 -0.487138 
1 0.81912 1.78482 -2.46244 
1 0.831893 0.766603 -2.08838 
1 0.910937 0.970216 -3.16676 
1 1.00099 0.905751 -0.409806 
2 1.06523 0.562851 -1.23979 
2 1.02624 0.0940617 -0.0196009 
1 1.12515 1.54061 -1.38672 
2 1.5151 0.558001 -2.59943 
1 1.58028 0.0358624 -0.719576 
1 1.602 1.71784 -3.61722 
1 0.0683466 0.00646441 -1.83456 
1 1.81076 1.36994 -2.5166 
1 1.84995 0.68789 -1.66336 
2 -3.17203 0.345345 1.38899 
2 -2.53909 1.00135 0.955059 
1 -3.27889 1.22729 1.3994 
1 -2.84577 1.64634 0.411859 
1 -3.24269 0.569472 0.538819 
1 -2.38109 0.657838 1.7322 
1 -2.39774 1.75052 1.77798 
1 -2.20611 0.834067 0.171956 
1 -1.86451 1.61726 0.865544 
1 -1.52469 0.588046 1.01129 
1 -1.45666 1.25699 1.82148 
2 -1.10201 1.25682 0.611173 
1 -2.41424 0.0175795 0.86097 
1 -0.488412 1.75743 0.218698 
1 -1.09244 0.517751 0.0557095 
1 -0.388629 0.895499 0.992112 
1 0.216887 1.67962 1.45943 
1 0.363001 0.225808 0.624317 
1 0.541335 1.28701 0.504784 
1 0.816364 0.819485 1.44343 
2 1.04704 0.0352708 1.7453 
1 1.38046 0.224508 0.787842 
2 1.40423 1.11743 0.600644 
1 1.92438 0.91218 1.31428 
1 1.94024 0.682353 0.0376945 
1 1.96322 0.675589 -3.36161 
2 1.98551 1.58381 -1.65676 
1 1.95767 -1.12081 1.08387 
1 2.01182 1.42349 -0.765216 
1 2.07444 -1.88733 -3.17796 
1 2.03711 -3.29124 -1.86099 
1 2.08201 -1.54148 -1.07002 
1 2.09712 -2.20941 -2.04999 
1 2.1227 -2.92568 -2.85224 
1 2.18375 1.60463 0.567233 
1 2.1691 -2.59607 -1.01528 
1 2.23063 -0.307698 -1.4884 
1 2.18806 -2.9994 1.05291 
1 2.19629 -2.02786 1.63225 
1 2.29429 -2.27095 -0.0108604 
2 2.36669 1.45649 -3.27381 
2 2.33448 -1.32448 0.101629 
1 2.3747 -1.17446 -2.06548 
1 2.42637 -0.678444 -0.537903 
1 -3.71246 -2.06458 0.944967 
2 3.67204 -1.97359 -0.900721 
1 3.16429 -2.76287 -3.1235 
2 2.80833 -2.67941 -2.30123 
2 2.52163 -3.13582 -0.01319 
2 3.17749 -0.82131 -3.73302 
1 2.49227 -3.63762 -0.734625 
1 2.49822 -0.871084 -3.12791 
1 3.52323 -1.00282 -2.9191 
1 3.00441 -1.73854 -3.72799 
1 3.15565 -2.65177 -0.52135 
1 3.5225 -1.0924 -1.81362 
1 3.22982 -0.321679 -1.1249 
2 3.29656 -0.759489 -0.35033 
2 2.82212 -1.09534 -1.25627 
1 3.01486 -1.97338 -1.49381 
1 2.90671 -3.56977 -2.44565 
1 3.01912 -3.0432 -1.52522 
1 2.50889 -3.7071 -3.44449 
1 2.98325 -0.319093 -2.26151 
1 2.99245 -1.56805 -0.483854 
1 2.9854 -1.84567 -2.59418 
1 3.7064 -2.5011 -2.18657 
1 3.60155 -3.71078 -0.96298 
2 3.41526 -1.18173 1.03818 
2 3.34063 -2.0337 0.15018 
1 3.31241 -3.61407 0.0244965 
1 3.21483 -3.63784 1.11499 
1 2.8795 -0.606668 1.46858 
1 2.77223 -1.72457 0.770568 
1 3.11974 -2.62107 1.64244 
1 2.8915 -0.717125 0.418381 
1 3.06529 -2.74639 0.555214 
2 2.59931 0.043379 -0.0555467 
1 3.0503 0.929896 -3.4846 
1 3.00459 1.61589 -2.68636 
1 3.6139 0.524872 -2.20509 
1 3.50042 0.0512477 -0.0997852 
1 2.83594 1.26063 -1.6437 
2 2.87772 0.347524 -1.66355 
1 3.60309 0.660367 -1.11459 
1 2.58314 0.496585 -0.82413 
1 3.07865 1.69829 -0.659166 
1 2.58726 0.639565 -2.49584 
2 2.47826 0.010297 -3.11701 
1 3.80753 1.66702 -3.45906 
1 3.34692 -0.00996219 -3.20753 
1 3.44369 0.324985 1.66427 
2 3.76343 1.31241 0.630688 
1 2.96527 0.917056 0.129972 
1 3.00311 1.13018 1.17411 
1 2.50913 0.179267 0.804022 
2 3.3746 0.389147 0.755882 
2 2.56785 0.358602 1.64836 
1 -2.87417 2.15684 -2.88385 
1 -2.62135 3.19634 -3.16828 
1 -2.46311 2.81413 -2.0879 
2 -3.20757 2.26577 -1.98692 
1 -3.00415 3.17914 -0.366562 
1 -3.46837 2.82075 -1.34282 
1 -2.51431 2.44911 -1.0919 
1 -3.44571 2.23249 -0.295293 
1 -1.9396 3.27085 -0.756176 
1 -3.45459 2.97762 -2.44372 
1 -2.11117 2.30831 -3.62915 
1 -2.18487 2.3784 -0.0846504 
1 -3.55816 2.72975 -3.50331 
1 -2.73384 3.63891 -1.35145 
2 -1.95066 3.42575 -1.64831 
2 -1.36845 3.0734 -0.138615 
1 -1.56407 3.22551 -3.6037 
1 -1.50751 2.90336 -2.59937 
1 -1.46699 2.70793 -1.56086 
1 -1.14235 2.38475 -0.610068 
1 -0.992972 2.20502 -3.23296 
1 -0.87206 3.41011 -0.843169 
1 -0.905454 1.95241 -2.17074 
2 -0.72193 2.23689 -1.37074 
1 -0.542098 3.19543 -3.10763 
1 -0.438594 2.92422 -1.91318 
2 -0.195517 2.37373 -3.60365 
1 -0.0887171 2.68815 -0.952128 
1 0.00799768 2.39901 -2.70895 
1 0.100725 1.94409 -1.65521 
2 0.0623543 3.40212 -0.436732 
1 0.214454 3.69321 -1.25763 
1 0.537651 3.35243 -2.77596 
1 0.598186 2.01998 -3.54158 
1 0.705256 2.86272 -1.75864 
2 0.698253 2.30015 -1.09274 
1 0.755187 2.85243 -0.342465 
2 1.04982 3.3572 -1.03929 
1 -1.16328 3.69107 -1.92036 
1 1.26693 2.66657 -3.05647 
2 1.31721 3.15842 -2.3158 
1 1.31218 1.86285 -0.00781585 
1 1.53587 2.4184 -0.913631 
1 1.62877 2.32926 -2.01914 
1 1.72996 3.29753 -0.323526 
1 1.82158 3.22204 -1.52185 
1 -2.36154 2.58794 0.998132 
1 -3.45654 3.13599 1.65296 
1 -3.09424 3.42136 0.689499 
2 -2.9445 2.60792 0.330323 
1 -3.40826 2.26736 1.01275 
1 -2.28216 3.62418 1.40583 
1 -2.09282 3.39607 0.300274 
2 -1.64529 3.14292 1.00826 
1 -1.50168 2.57844 1.69022 
1 -1.31481 2.48434 0.526405 
1 -1.13735 3.63196 1.5179 
1 -1.01931 3.5524 0.475255 
1 -0.807005 1.87362 1.25168 
1 -0.436774 2.91907 1.09732 
1 -0.421264 2.81973 0.0208403 
1 0.322921 3.43653 0.439805 
1 0.393397 2.3499 0.585894 
1 0.642519 3.10658 1.39622 
2 1.1799 3.60981 0.295455 
1 1.24618 1.84574 1.10161 
1 1.41115 2.78174 0.559903 
1 1.56379 3.7009 1.08867 
1 1.62696 2.78759 1.64078 
1 2.14769 3.29614 -2.53863 
1 2.12837 1.84788 1.70173 
1 2.20901 2.25753 -2.89613 
2 2.35276 2.9826 -0.86157 
1 2.32337 2.39686 -0.159521 
1 2.44629 2.61032 0.941234 
1 2.4727 3.48359 1.63681 
1 2.48233 3.55475 0.430829 
1 2.48326 2.26055 -1.33697 
1 2.85848 2.08106 -3.71216 
1 3.05653 2.86552 -2.88979 
1 3.19283 2.87445 -0.585074 
1 3.34401 2.27732 -1.95755 
1 2.92214 3.23561 -1.60765 
2 2.52777 2.60747 -2.14567 
2 3.68097 2.22005 -2.78637 
1 3.7526 3.72693 -3.20432 
1 3.19547 1.92649 0.404175 
2 3.17846 2.98532 1.35499 
1 3.42129 2.93333 0.500287 
1 3.16177 2.11104 1.55607 
1 -0.815416 0.403426 1.85262 
2 -0.00185258 0.841043 1.85393 
1 -0.783898 -0.730779 1.94569 
1 -3.36598 -2.23415 1.9274 
2 -2.73199 -2.88411 2.13416 
1 -3.45069 -3.04733 2.6193 
1 -2.28365 -2.10208 2.12282 
1 -2.32467 -2.87625 2.97779 
1 -3.02637 -2.0875 2.89691 
1 -1.87833 -3.12439 2.01971 
1 -1.13028 -2.60747 2.64805 
2 -1.03153 -3.43382 2.26934 
2 -0.99116 -2.02893 3.44716 
1 -1.81519 -1.89122 3.07159 
1 0.501238 -3.3056 2.48344 
1 -0.247615 -2.52416 3.21661 
2 -0.279577 -2.86379 2.35636 
1 0.671496 -2.30173 2.44663 
1 -0.458595 -3.56134 2.97787 
2 0.815069 -2.29245 3.32319 
1 -3.11423 -3.56913 3.49728 
1 -2.81992 -1.14232 2.49393 
1 -2.47499 -0.630854 3.391 
2 -3.05596 -0.327055 2.74084 
1 -3.47421 -1.26374 3.41273 
2 -2.56435 -1.49335 3.31131 
1 -1.14911 -0.136519 2.75597 
1 -1.28237 -1.74937 1.94637 
1 -1.43914 -0.748736 3.6049 
1 -1.77114 -0.978135 2.50716 
1 -0.828823 -1.32761 2.91219 
1 -0.284477 -1.95411 2.24205 
1 -0.429347 -0.341953 3.58489 
1 0.242448 -1.58089 3.19626 
1 0.0305514 -0.678737 2.62196 
2 0.536167 -1.42868 2.37147 
1 0.571102 -3.16322 3.53233 
1 -1.54803 -3.61062 2.95885 
1 -1.42664 -2.79603 3.63805 
1 -2.23591 -0.0298257 2.56963 
1 0.923837 -0.745507 3.21597 
1 1.067 -0.748974 2.16913 
1 1.34931 -1.61315 2.77893 
1 1.48639 -2.81373 2.93742 
1 -3.57428 -2.64049 3.58789 
2 1.58924 -2.27233 2.24522 
2 -1.00969 -3.70038 3.68942 
1 1.76093 -0.247939 2.82679 
2 1.79381 -2.06445 3.42458 
2 1.8013 -3.31816 3.62406 
1 -2.89889 0.339926 3.35752 
1 -3.36905 1.23352 3.09112 
1 -3.2405 0.456201 2.34861 
2 -3.00397 1.32285 2.27265 
1 -2.26424 1.00649 2.74144 
1 -1.81568 0.298632 3.54199 
1 -1.55523 1.39416 3.72627 
2 -1.6329 0.463772 2.18462 
1 -1.20396 0.916395 2.81301 
1 -0.702777 0.698761 3.72155 
1 -0.633052 1.74339 3.34806 
1 -0.452073 1.50319 2.28881 
1 -0.232552 0.472398 2.73166 
1 0.261415 1.14649 3.40892 
1 0.542811 0.151336 3.67805 
1 0.625758 1.20718 2.42038 
1 0.738515 0.144376 2.60703 
2 0.944432 1.65397 3.16613 
1 1.32148 0.818317 3.26395 
2 1.34729 1.40034 1.85951 
1 1.56807 0.633776 2.24773 
1 1.66607 1.66559 2.64607 
2 3.8303 -1.47357 2.47243 
1 1.5538 3.74467 2.16436 
1 2.09028 -1.17416 3.39785 
1 2.1469 -1.09353 2.20619 
1 2.18457 -2.96302 2.12278 
2 2.25502 0.477438 2.88154 
1 2.2703 -3.64161 2.93468 
1 2.3644 1.2461 3.28507 
1 2.328 -2.04586 2.71266 
1 2.41799 -2.68889 3.56337 
1 3.36715 -2.18661 2.756 
1 3.71111 -0.58644 2.21654 
1 2.6102 -0.128313 3.4865 
1 3.67867 -0.265816 3.24162 
1 2.72144 -0.121382 2.39169 
1 3.12524 -3.50406 2.21805 
2 2.77441 -2.86031 2.76183 
1 3.04168 -1.10517 2.86784 
1 3.16969 -1.55979 1.85564 
1 3.24156 -3.39314 3.30079 
1 3.19368 0.63454 2.95126 
2 3.25273 1.47714 3.24175 
1 3.52735 1.31108 2.21013 
2 3.74845 0.538893 3.60835 
1 2.53085 1.01069 2.21757 
1 2.08118 2.90303 3.73337 
1 -0.123083 3.73275 1.89522 
1 -3.3486 2.15746 2.07722 
1 -2.59721 1.97708 2.8463 
1 -2.48606 2.77888 2.07521 
1 -2.76264 2.90402 3.27276 
1 -3.50085 3.34777 2.71902 
2 -2.17979 3.57819 3.31015 
1 -2.50627 3.72827 2.48745 
2 -2.99423 2.12284 3.64101 
1 -1.79107 2.87566 2.88564 
2 -1.74352 3.39743 2.13951 
1 -1.48729 1.92073 2.63537 
2 -1.34535 2.28565 3.42512 
1 -0.893646 3.13164 2.38042 
1 -0.699347 2.87708 3.36197 
2 -0.671394 2.30457 2.66319 
1 -0.104075 2.54354 2.01318 
2 -0.0915489 3.07367 2.76078 
1 0.212201 2.22075 2.95957 
1 0.342929 3.13338 3.59177 
1 0.723223 3.12143 2.48012 
1 0.920566 2.16363 2.10114 
1 1.23581 2.49288 3.19954 
1 1.38524 3.56529 3.21709 
1 2.08488 2.82663 2.62612 
2 2.11473 2.14481 3.2485 
2 2.46196 2.61836 1.84861 
1 3.74739 2.23318 3.05357 
1 2.76472 1.98683 2.63247 
1 3.15375 2.90054 2.26322 
1 3.07071 3.04011 3.32632 
