ITEM: TIMESTEP
823
ITEM: NUMBER OF ATOMS
500
ITEM: BOX BOUNDS xy xz yz pp pp pp
-3.7345 3.854 0.119504
-3.7345 3.7345 0
-3.7345 3.7345 0
ITEM: ATOMS type xu yu zu 
1 -2.79383 -2.05686 -2.50548 
1 -3.10634 -3.00613 -2.92366 
1 -2.54554 -2.31646 -3.61966 
1 -2.23285 -3.34339 -3.46004 
1 -1.87376 -2.53528 -2.79506 
1 -0.941072 -2.69401 -2.23531 
2 -1.75198 -3.05206 -2.09847 
1 -0.736853 -2.34873 -3.214 
1 0.311921 -2.22312 -3.38152 
1 -0.308315 -3.30181 -3.38221 
2 -0.172752 -2.728 -2.66791 
1 0.616716 -3.05187 -2.78545 
1 -3.178 -0.403268 -3.31811 
1 -3.03592 -0.976355 -2.38502 
1 -2.65604 -1.33801 -3.30314 
1 -2.28387 -0.479005 -1.86354 
1 -2.09081 -0.501129 -2.99748 
1 -2.00939 -1.39941 -2.40432 
1 -0.974447 -1.61203 -2.48984 
1 -1.60362 -1.68654 -3.38421 
2 -1.2553 -0.92837 -3.01297 
1 -1.32344 -0.6505 -2.17352 
1 0.0282481 -1.89191 -2.40402 
1 0.392567 -0.835146 -3.36015 
2 0.637345 -1.52088 -2.91661 
1 -0.424384 -0.656657 -2.71445 
1 0.492716 -0.940762 -2.245 
1 -0.558686 -1.36333 -3.51371 
1 -2.66817 -2.86489 -1.87129 
1 -3.44211 -2.77001 -1.15211 
1 -2.72712 -3.31707 -0.395879 
1 -2.45914 -2.35473 -0.870016 
1 -3.34247 -2.2299 -0.190665 
2 -3.56908 -3.08711 -0.341698 
1 -1.63679 -3.32031 -0.228409 
1 -1.76718 -2.24002 -1.75073 
1 -1.90663 -3.2467 -1.24732 
1 -1.36564 -2.42153 -0.769142 
1 -0.743794 -3.10543 -1.27358 
1 -0.64043 -2.00605 -1.47765 
1 0.16452 -2.75438 -1.81929 
1 0.0733826 -2.57513 -0.770794 
1 -0.493589 -3.33609 -0.208032 
1 0.60863 -3.46523 -0.357298 
2 0.664515 -3.09359 -1.16775 
1 -3.18198 -1.82712 -1.54648 
1 -3.54205 -1.10299 -0.836074 
1 -3.32344 -0.204616 -1.6247 
2 -2.96412 -0.98981 -1.51303 
1 -2.5992 -0.515075 -0.876822 
1 -2.67489 -1.41411 -0.322038 
2 -3.43352 -0.22184 -0.741452 
1 -2.18464 -1.38411 -1.29706 
2 -1.392 -1.43114 -1.74978 
1 -1.54447 -0.293673 -1.14732 
2 -1.90874 -0.944805 -0.489917 
1 -1.19727 -1.27176 -0.927978 
2 -0.793121 -0.507416 -0.745007 
1 -0.580568 -1.84174 -0.314068 
1 -0.447651 -0.958606 -1.67003 
1 0.402687 -1.6869 -1.37041 
1 -0.0603432 -0.97978 -0.696449 
2 0.405431 -0.708061 -1.39903 
2 -3.59693 -1.66072 -2.3518 
1 -1.94349 -0.110512 -0.157638 
2 -3.59509 -0.2813 -2.50218 
1 -1.29742 -3.435 -2.93662 
1 -3.57407 -3.5205 -2.04648 
1 -2.27577 -3.66998 -2.42535 
1 -0.304415 -0.197803 -0.0611459 
1 0.50698 -1.71871 -0.232255 
1 -0.322508 -3.55285 -2.30406 
1 0.880555 -0.0690265 -2.76244 
1 0.932892 -3.56738 -1.90051 
1 -3.56063 -1.92313 -3.17556 
1 1.13334 -0.222721 -1.6954 
1 1.13655 -1.60495 -3.65343 
1 1.14369 -2.12452 -2.5833 
1 1.07712 -0.920086 -0.858575 
1 1.18354 -2.49766 -1.58072 
2 1.21269 -1.78155 -0.996717 
1 1.13975 -2.50722 -0.525905 
1 1.35405 -2.6316 -3.49856 
1 1.42302 -1.0727 -2.80153 
1 1.34083 -1.39202 -1.79565 
1 1.35103 -3.70215 -3.18723 
2 1.38998 -2.94029 -2.3526 
1 1.46199 -3.38521 -0.978486 
1 1.6098 -0.307151 -3.54532 
1 1.53814 -1.56111 -0.163522 
1 0.487008 -0.017382 -0.780247 
1 -1.17798 0.0116782 -3.06129 
1 -1.70302 -1.72898 -0.0717673 
1 1.91384 -0.19644 -2.47946 
1 -3.35888 -3.29846 1.60016 
1 -3.36679 -3.00822 0.526743 
1 -2.60991 -2.65127 1.25783 
2 -2.57602 -3.34773 0.654278 
1 -2.32957 -2.55815 0.21009 
1 -1.74612 -3.15008 0.894463 
1 -1.07612 -2.5603 0.322232 
1 -0.933239 -2.78855 1.6414 
1 -1.72074 -2.03921 0.998091 
1 -0.0154608 -2.49324 0.3115 
1 0.167311 -2.7045 1.57918 
1 -0.407006 -3.30712 0.900839 
2 0.669886 -3.49191 1.60029 
1 0.705454 -3.12422 0.72842 
1 0.546201 -1.7721 0.854229 
2 0.867354 -2.37024 0.283275 
1 -2.76115 -1.7093 0.710659 
2 -2.84874 -0.788379 0.935091 
1 -3.32002 -1.26047 1.52204 
1 -2.22447 -1.20646 1.51911 
1 -2.82701 -0.354987 1.75733 
1 -2.11212 -0.925912 0.474141 
2 -1.00743 -1.66491 0.446291 
1 -1.70246 -0.255805 1.63497 
1 -1.23189 -1.07764 1.05548 
2 -1.55264 -0.256998 0.674539 
1 -0.53028 -1.94578 1.13933 
1 -0.693932 -0.165189 0.935361 
1 -0.257493 -1.16876 0.458528 
1 0.13314 -1.15933 1.61883 
2 0.113755 -0.553219 0.943125 
1 0.660673 -0.707535 0.127776 
1 -3.64121 -0.372446 0.957933 
1 0.155753 -0.0471374 1.68913 
1 -3.01835 -0.432005 0.0824153 
1 -3.67611 -1.26068 0.234976 
1 1.17006 -1.6812 1.7029 
1 0.959681 -0.663048 1.14453 
2 1.22853 -1.27611 0.587815 
1 1.24342 -2.78691 1.61634 
1 1.56284 -2.12994 0.761839 
1 -1.15683 -0.80106 0.0218986 
1 1.62586 -3.16757 0.133988 
1 1.72744 -0.559817 0.213066 
1 1.88106 -0.196423 1.65329 
1 -3.47366 1.48771 -2.34207 
1 -3.30198 0.728105 -3.13454 
2 -2.69292 1.06452 -2.46263 
1 -2.77901 0.163933 -2.4703 
1 -2.04379 0.743968 -2.97271 
1 -2.52794 1.73736 -1.88442 
1 -2.86942 0.443202 -0.589677 
1 -2.93749 0.803232 -1.61182 
1 -2.5421 1.4664 -0.67894 
2 -2.32003 0.222127 -1.31463 
1 -3.46117 1.71773 -1.27252 
1 -3.55185 1.18575 -0.252238 
1 -2.6127 1.34581 -3.65081 
1 -1.91867 0.826819 -1.92071 
1 -1.86985 1.79812 -2.70362 
2 -1.80647 0.0859749 -2.39317 
1 -1.72595 0.717222 -0.854276 
1 -1.63319 1.69709 -1.3052 
1 -1.48726 1.51748 -0.157136 
1 -1.08498 1.0617 -2.75152 
2 -1.06812 1.16401 -1.75622 
1 -0.987149 0.305864 -1.99725 
1 -0.658585 1.44681 -0.95611 
1 -0.639795 0.327879 -0.98535 
1 -0.238643 1.06489 -2.11192 
1 -0.18156 1.44595 -3.12863 
2 -2.53609 0.166626 -3.35497 
1 -0.0992223 0.831088 -0.191569 
1 -0.105341 0.358786 -2.91345 
1 0.255097 0.937851 -1.19511 
1 0.326464 1.79851 -0.487588 
1 0.813262 1.78545 -2.46284 
1 0.827205 0.767159 -2.08871 
1 0.90582 0.970359 -3.16662 
1 0.99682 0.907161 -0.410998 
2 1.0606 0.563337 -1.24025 
2 1.02319 0.0965815 -0.0191167 
1 1.11974 1.54111 -1.38717 
2 1.51047 0.557766 -2.59908 
1 1.57586 0.0360426 -0.719916 
1 1.5961 1.71796 -3.61748 
1 0.0636198 0.00694036 -1.83612 
1 1.80529 1.36996 -2.51635 
1 1.84554 0.687452 -1.66332 
2 -3.17598 0.345531 1.38892 
2 -2.54376 1.00051 0.954253 
1 -3.28237 1.22772 1.399 
1 -2.85022 1.64652 0.411191 
1 -3.24762 0.569325 0.538729 
1 -2.385 0.657844 1.73174 
1 -2.40095 1.75041 1.77926 
1 -2.21092 0.833832 0.171223 
1 -1.86972 1.61637 0.865923 
1 -1.52885 0.587443 1.01078 
1 -1.46014 1.25623 1.82064 
2 -1.1069 1.25708 0.611707 
1 -2.41855 0.0178694 0.860485 
1 -0.493173 1.75655 0.218686 
1 -1.09592 0.518049 0.0556456 
1 -0.393401 0.895575 0.992133 
1 0.21228 1.67922 1.45963 
1 0.358207 0.225692 0.62455 
1 0.53659 1.28679 0.504746 
1 0.811507 0.819436 1.44391 
2 1.04331 0.0349191 1.74477 
1 1.37529 0.224023 0.789824 
2 1.39912 1.11674 0.601478 
1 1.92004 0.912075 1.31454 
1 1.93463 0.680859 0.0385645 
1 1.95801 0.676012 -3.36125 
2 1.98011 1.58352 -1.65669 
1 1.95541 -1.12044 1.08398 
1 2.00605 1.42248 -0.764938 
1 2.07148 -1.88634 -3.177 
1 2.03699 -3.29152 -1.86145 
1 2.07997 -1.54383 -1.07166 
1 2.09503 -2.20978 -2.05027 
1 2.12194 -2.92535 -2.85252 
1 2.17821 1.60387 0.566864 
1 2.16995 -2.59745 -1.016 
1 2.22612 -0.308675 -1.48834 
1 2.18619 -2.99814 1.05387 
1 2.1937 -2.02747 1.63287 
1 2.29217 -2.27104 -0.0116771 
2 2.36123 1.45693 -3.2744 
2 2.33442 -1.32587 0.10159 
1 2.37222 -1.17497 -2.06637 
1 2.42277 -0.680716 -0.538431 
1 -3.71467 -2.06537 0.945005 
2 3.67078 -1.97437 -0.901004 
1 3.16347 -2.76309 -3.12406 
2 2.80695 -2.67987 -2.30089 
2 2.52041 -3.13602 -0.0152381 
2 3.1752 -0.820251 -3.73272 
1 2.49241 -3.63875 -0.735928 
1 2.49471 -0.870022 -3.12805 
1 3.51929 -1.00261 -2.91843 
1 3.0012 -1.737 -3.72726 
1 3.1547 -2.65232 -0.521582 
1 3.51994 -1.09247 -1.81425 
1 3.22574 -0.32249 -1.12512 
2 3.29321 -0.76037 -0.350473 
2 2.81953 -1.09673 -1.25705 
1 3.01397 -1.9746 -1.49484 
1 2.90661 -3.56956 -2.44618 
1 3.01952 -3.0445 -1.5255 
1 2.5087 -3.70678 -3.44436 
1 2.97931 -0.319 -2.26104 
1 2.9905 -1.56925 -0.485123 
1 2.98326 -1.84663 -2.5943 
1 3.70536 -2.50206 -2.18788 
1 3.60256 -3.7115 -0.96298 
2 3.41226 -1.18226 1.03848 
2 3.33787 -2.03393 0.150233 
1 3.31092 -3.61441 0.0237542 
1 3.21593 -3.63774 1.11493 
1 2.87628 -0.607374 1.46899 
1 2.76975 -1.72557 0.771312 
1 3.11759 -2.62086 1.64186 
1 2.8887 -0.717357 0.418609 
1 3.063 -2.74708 0.554616 
2 2.59348 0.0413561 -0.0552641 
1 3.04461 0.929376 -3.48424 
1 2.99884 1.61643 -2.68677 
1 3.60954 0.52465 -2.20512 
1 3.49551 0.0509942 -0.10036 
1 2.83098 1.2605 -1.64359 
2 2.87302 0.347362 -1.66318 
1 3.59817 0.659948 -1.11474 
1 2.57849 0.495637 -0.823507 
1 3.07286 1.69746 -0.65896 
1 2.58269 0.6398 -2.49556 
2 2.47413 0.0113407 -3.11727 
1 3.80179 1.66652 -3.45958 
1 3.34297 -0.00988789 -3.20722 
1 3.43982 0.324668 1.66381 
2 3.75909 1.31286 0.630758 
1 2.9598 0.916158 0.130357 
1 2.99861 1.13007 1.1743 
1 2.50443 0.178279 0.804442 
2 3.36985 0.388433 0.755675 
2 2.56404 0.359274 1.64841 
1 -2.87994 2.1565 -2.88442 
1 -2.62722 3.1963 -3.16914 
1 -2.46775 2.81349 -2.08893 
2 -3.21292 2.26569 -1.98704 
1 -3.01025 3.17845 -0.36727 
1 -3.47419 2.8203 -1.3429 
1 -2.5198 2.44915 -1.09238 
1 -3.45241 2.23221 -0.294751 
1 -1.94651 3.27201 -0.756375 
1 -3.45972 2.97734 -2.4441 
1 -2.1175 2.30865 -3.62996 
1 -2.18865 2.37918 -0.085393 
1 -3.56422 2.7293 -3.50344 
1 -2.74059 3.6384 -1.35285 
2 -1.95688 3.42593 -1.64841 
2 -1.37868 3.06988 -0.137553 
1 -1.57029 3.22556 -3.60326 
1 -1.51071 2.90504 -2.59827 
1 -1.47259 2.70854 -1.55987 
1 -1.1468 2.3839 -0.61 
1 -0.999035 2.20585 -3.23365 
1 -0.878743 3.41031 -0.839926 
1 -0.911165 1.95329 -2.17151 
2 -0.727712 2.23616 -1.37108 
1 -0.54734 3.19615 -3.1098 
1 -0.445115 2.92462 -1.91328 
2 -0.2015 2.37472 -3.60422 
1 -0.0951962 2.68846 -0.95217 
1 0.00159213 2.3995 -2.70913 
1 0.0950044 1.94451 -1.65523 
2 0.0553125 3.40245 -0.436346 
1 0.206644 3.69345 -1.25767 
1 0.531061 3.35231 -2.77642 
1 0.592126 2.0205 -3.54179 
1 0.698824 2.86323 -1.75895 
2 0.692424 2.30097 -1.09295 
1 0.748747 2.85272 -0.342557 
2 1.04219 3.35797 -1.03937 
1 -1.16926 3.69247 -1.91771 
1 1.26091 2.6668 -3.05637 
2 1.3105 3.15926 -2.31605 
1 1.30664 1.86345 -0.00738847 
1 1.53019 2.41802 -0.913292 
1 1.62314 2.32956 -2.01921 
1 1.72352 3.29745 -0.323602 
1 1.81424 3.22239 -1.52128 
1 -2.36776 2.58678 0.997858 
1 -3.46327 3.13483 1.6531 
1 -3.10227 3.42006 0.689179 
2 -2.94894 2.60738 0.32915 
1 -3.41463 2.26736 1.01097 
1 -2.28983 3.6229 1.40577 
1 -2.10114 3.39686 0.300162 
2 -1.65263 3.14231 1.00702 
1 -1.50806 2.57764 1.68894 
1 -1.31994 2.48298 0.527535 
1 -1.14541 3.63167 1.51691 
1 -1.0272 3.55146 0.473501 
1 -0.811037 1.87396 1.25211 
1 -0.44317 2.9205 1.09748 
1 -0.426647 2.81881 0.0215728 
1 0.316755 3.43637 0.44016 
1 0.38766 2.3497 0.586618 
1 0.635874 3.10634 1.39676 
2 1.17315 3.60979 0.29529 
1 1.24113 1.84573 1.10174 
1 1.40483 2.78221 0.560115 
1 1.55534 3.70137 1.08939 
1 1.62059 2.78761 1.64062 
1 2.1414 3.29491 -2.53807 
1 2.12294 1.84801 1.70204 
1 2.2029 2.25748 -2.89676 
2 2.34577 2.98158 -0.861758 
1 2.31752 2.39677 -0.159167 
1 2.43968 2.60981 0.941215 
1 2.46552 3.48434 1.63616 
1 2.47448 3.55547 0.432509 
1 2.85323 2.08177 -3.7122 
1 3.05074 2.86535 -2.88933 
1 2.47761 2.25991 -1.33698 
1 3.18631 2.87358 -0.586281 
1 3.33863 2.27702 -1.95756 
1 2.9154 3.23501 -1.60866 
2 2.52229 2.60592 -2.14615 
2 3.67534 2.21979 -2.78666 
1 3.7449 3.72649 -3.2048 
1 3.18952 1.92568 0.40419 
2 3.17151 2.98586 1.35487 
1 3.41285 2.93312 0.499815 
1 3.15618 2.11171 1.55625 
1 -0.819372 0.402654 1.85236 
2 -0.00647943 0.840734 1.85408 
1 -0.787302 -0.730725 1.94553 
1 -3.36781 -2.23437 1.92823 
2 -2.73244 -2.88402 2.13478 
1 -3.45047 -3.04703 2.62045 
1 -2.28494 -2.10195 2.12349 
1 -2.32423 -2.87605 2.97794 
1 -3.02691 -2.08704 2.89785 
1 -1.87919 -3.12453 2.0187 
1 -1.13129 -2.60824 2.64642 
2 -1.0317 -3.43412 2.26798 
2 -0.992059 -2.02872 3.44891 
1 -1.8151 -1.89259 3.07239 
1 0.501014 -3.30633 2.48291 
1 -0.250186 -2.52494 3.21738 
2 -0.279828 -2.86405 2.35644 
1 0.669173 -2.3022 2.44741 
1 -0.45922 -3.56187 2.97722 
2 0.813291 -2.29259 3.32371 
1 -3.11329 -3.57001 3.49775 
1 -2.8229 -1.14161 2.49378 
1 -2.47848 -0.629334 3.39141 
2 -3.05972 -0.326798 2.74142 
1 -3.47642 -1.26248 3.41149 
2 -2.56373 -1.49201 3.31005 
1 -1.15293 -0.136724 2.75588 
1 -1.28415 -1.74898 1.94657 
1 -1.44264 -0.748652 3.60489 
1 -1.77437 -0.978854 2.50797 
1 -0.831529 -1.32777 2.91273 
1 -0.28669 -1.95453 2.24285 
1 -0.433085 -0.341238 3.58528 
1 0.239396 -1.58154 3.19716 
1 0.0269145 -0.679333 2.62259 
2 0.533452 -1.42911 2.37254 
1 0.570101 -3.16339 3.53183 
1 -1.54853 -3.61165 2.95703 
1 -1.42245 -2.7995 3.63729 
1 -2.23974 -0.0300386 2.56918 
1 0.920475 -0.746001 3.21614 
1 1.06372 -0.749183 2.16951 
1 1.34687 -1.61338 2.7794 
1 1.48501 -2.81359 2.93809 
1 -3.57243 -2.64166 3.58954 
2 1.58745 -2.27229 2.24603 
2 -1.01055 -3.69861 3.68882 
1 1.7572 -0.247702 2.82688 
2 1.79183 -2.06389 3.42513 
2 1.80071 -3.31759 3.62476 
1 -2.90316 0.341097 3.35755 
1 -3.37432 1.23418 3.0901 
1 -3.24446 0.455997 2.34838 
2 -3.00827 1.32243 2.27219 
1 -2.26861 1.00637 2.74091 
1 -1.81944 0.298732 3.54163 
1 -1.56086 1.39455 3.72547 
2 -1.63687 0.463407 2.184 
1 -1.20849 0.916272 2.81249 
1 -0.7082 0.699115 3.72129 
1 -0.63837 1.74321 3.34781 
1 -0.456592 1.50281 2.28884 
1 -0.236848 0.472225 2.73164 
1 0.256314 1.14611 3.40945 
1 0.539436 0.151006 3.67795 
1 0.620866 1.20675 2.42084 
1 0.734258 0.143882 2.60708 
2 0.938877 1.65387 3.16622 
1 1.31666 0.818451 3.26395 
2 1.34226 1.40035 1.85967 
1 1.56332 0.633758 2.24782 
1 1.66073 1.66568 2.64629 
2 3.82767 -1.47338 2.47347 
1 1.54657 3.74421 2.16493 
1 2.08715 -1.17354 3.39808 
1 2.14375 -1.09333 2.20667 
1 2.18333 -2.96262 2.1236 
2 2.25109 0.477651 2.8817 
1 2.26998 -3.64139 2.93547 
1 2.35923 1.2465 3.28533 
1 2.32656 -2.0451 2.71316 
1 3.36619 -2.18676 2.75871 
1 3.70794 -0.586474 2.21661 
1 2.60643 -0.128128 3.48652 
1 3.67474 -0.26449 3.24136 
1 2.71796 -0.121025 2.39163 
1 3.12474 -3.5029 2.21861 
2 2.77284 -2.85971 2.76259 
1 2.41648 -2.68776 3.56387 
1 3.0386 -1.10463 2.86823 
1 3.16719 -1.5602 1.85692 
1 3.24108 -3.39161 3.3012 
1 3.18879 0.635433 2.95147 
2 3.24762 1.47767 3.2424 
1 3.52241 1.31032 2.20872 
2 3.7439 0.540279 3.60841 
1 2.52577 1.01108 2.21785 
1 2.07493 2.90304 3.73299 
1 -0.130712 3.73248 1.89463 
1 -3.35322 2.15626 2.07613 
1 -2.6021 1.97675 2.84623 
1 -2.49182 2.77877 2.07538 
1 -2.76979 2.90356 3.27148 
1 -3.50826 3.34898 2.71904 
2 -2.18651 3.57695 3.31063 
1 -2.5133 3.72815 2.48788 
2 -3.00046 2.12268 3.64025 
1 -1.79737 2.87441 2.88622 
2 -1.75066 3.3968 2.13968 
1 -1.49272 1.92024 2.63393 
2 -1.3517 2.2835 3.42448 
1 -0.900667 3.13081 2.37913 
1 -0.706783 2.87637 3.36083 
2 -0.677238 2.30394 2.6625 
1 -0.110241 2.54304 2.0126 
2 -0.0987113 3.0735 2.76004 
1 0.20638 2.22063 2.95911 
1 0.335754 3.13342 3.59091 
1 0.716413 3.12092 2.48051 
1 0.914997 2.16341 2.1015 
1 1.22984 2.49282 3.19936 
1 1.37771 3.56528 3.21808 
1 2.0787 2.8264 2.62597 
2 2.10935 2.14485 3.24855 
2 2.45554 2.61897 1.84818 
1 3.74196 2.23397 3.05257 
1 2.75961 1.98691 2.63246 
1 3.14657 2.90162 2.26326 
1 3.06477 3.04099 3.32665 
