ITEM: TIMESTEP
850
ITEM: NUMBER OF ATOMS
500
ITEM: BOX BOUNDS xy xz yz pp pp pp
-3.7345 3.854 0.119504
-3.7345 3.7345 0
-3.7345 3.7345 0
ITEM: ATOMS type xu yu zu 
1 0.670063 -2.30173 2.44663 
1 -2.67424 -1.41415 -0.322222 
1 2.07259 -1.88733 -3.17796 
1 -0.304353 -0.197699 -0.0603029 
1 1.13585 -2.5084 -0.527583 
1 -1.54815 -3.61062 2.95885 
1 2.14066 3.29614 -2.53863 
1 -1.1527 -0.136519 2.75597 
1 2.22721 -0.307698 -1.4884 
1 -3.36748 -2.23415 1.9274 
1 1.2406 1.84574 1.10161 
1 -1.72044 -2.03822 0.997108 
1 -1.17791 0.0110336 -3.06143 
1 2.07454 2.90303 3.73337 
1 -2.09092 -0.500803 -2.99766 
1 0.99635 0.905751 -0.409806 
1 1.06402 -0.748974 2.16913 
1 -1.20861 0.916395 2.81301 
1 -3.34172 -2.22947 -0.19138 
1 -2.76086 -1.70878 0.710517 
1 -3.47324 1.48763 -2.34202 
1 -2.18347 -1.38453 -1.29677 
1 2.12279 1.84788 1.70173 
1 -2.36786 2.58794 0.998132 
1 -2.54746 -2.31638 -3.62027 
1 1.46164 -3.38564 -0.978777 
1 -1.81703 -1.89122 3.07159 
1 -0.658234 1.44802 -0.955639 
1 0.906232 0.970216 -3.16676 
1 -2.77886 0.164319 -2.46972 
1 3.0643 -2.74639 0.555214 
1 -2.60977 -2.65106 1.25726 
1 -1.15635 -0.801408 0.0219566 
1 3.67521 -0.265816 3.24162 
1 3.3432 -0.00996219 -3.20753 
1 -2.21068 0.834067 0.171956 
1 -2.86878 0.443176 -0.589162 
1 -1.7739 -0.978135 2.50716 
1 -2.23961 -0.0298257 2.56963 
1 2.85266 2.08106 -3.71216 
1 3.0131 -1.97338 -1.49381 
1 -0.458769 -3.56134 2.97787 
1 0.0297815 -1.89131 -2.40396 
1 0.500809 -3.3056 2.48344 
1 0.881303 -0.0689742 -2.76269 
1 3.15592 2.11104 1.55607 
1 2.42331 -0.678444 -0.537903 
1 -2.40322 1.75052 1.77798 
1 2.87637 -0.606668 1.46858 
1 0.659132 -0.70908 0.128086 
1 -1.08394 1.06122 -2.75165 
1 -1.47343 2.70793 -1.56086 
1 -3.03578 -0.976246 -2.38427 
1 -0.694093 -0.164958 0.9359 
1 2.49536 -0.871084 -3.12791 
1 -1.79768 2.87566 2.88564 
1 0.93251 -3.56785 -1.90072 
1 2.1838 -2.96302 2.12278 
1 0.914668 2.16363 2.10114 
1 -0.83123 -1.32761 2.91219 
1 -0.427818 2.81973 0.0208403 
1 0.206246 2.22075 2.95957 
1 1.84553 0.68789 -1.66336 
1 -3.35449 2.15746 2.07722 
1 0.570531 -3.16322 3.53233 
1 -3.1144 -3.56913 3.49728 
1 -1.63337 1.69679 -1.30489 
1 -3.35957 -3.29744 1.59878 
1 -0.248826 -2.52416 3.21661 
1 -0.581701 -1.84097 -0.314047 
1 -3.4613 2.97762 -2.44372 
1 -0.63853 1.74339 3.34806 
1 1.17061 -1.6808 1.70217 
1 1.42491 -1.07335 -2.80167 
1 0.607943 -3.46557 -0.357424 
1 1.35005 -3.70223 -3.18859 
1 -1.508 2.57844 1.69022 
1 2.50886 -3.7071 -3.44449 
1 1.62271 2.32926 -2.01914 
1 -3.10803 -3.00416 -2.92396 
1 0.0274957 -0.678737 2.62196 
1 -1.2983 -3.43426 -2.93835 
1 1.95881 0.675589 -3.36161 
1 -0.998912 2.20502 -3.23296 
1 3.338 2.27732 -1.95755 
1 -2.82678 -0.354964 1.75796 
1 -0.45731 1.50319 2.28881 
1 2.49217 -3.63762 -0.734625 
1 1.3765 0.224508 0.787842 
1 -3.17709 -0.403017 -3.31787 
1 -0.432739 -0.341953 3.58489 
1 -3.02802 -2.0875 2.89691 
1 2.19458 -2.02786 1.63225 
1 -1.02659 3.5524 0.475255 
1 0.734636 0.144376 2.60703 
1 -2.32553 -2.87625 2.97779 
1 2.71783 -0.121382 2.39169 
1 -0.493904 1.75743 0.218698 
1 -1.90617 -3.24786 -1.24768 
1 -2.04265 0.743187 -2.97168 
1 3.11862 -2.62107 1.64244 
1 0.504888 -1.71924 -0.232047 
1 -3.47668 -1.26374 3.41273 
1 1.31693 0.818317 3.26395 
1 -3.45168 2.23249 -0.295293 
1 2.99825 1.13018 1.17411 
1 0.81181 0.819485 1.44343 
1 -0.0155392 -2.49454 0.309704 
1 0.240294 -1.58089 3.19626 
1 2.20302 2.25753 -2.89613 
1 3.04564 0.929896 -3.4846 
1 3.70517 -2.5011 -2.18657 
1 2.14426 -1.09353 2.20619 
1 0.827392 0.766603 -2.08838 
1 -1.4876 1.5178 -0.157339 
1 3.70796 -0.58644 2.21654 
1 -2.52801 1.73744 -1.88401 
1 0.312545 -2.22194 -3.38197 
1 -2.74122 3.63891 -1.35145 
1 1.6103 -0.307374 -3.54537 
1 -2.47809 -0.630854 3.391 
1 2.98351 -1.84567 -2.59418 
1 2.29282 -2.27095 -0.0108604 
1 2.2702 -3.64161 2.93468 
1 1.59655 1.71784 -3.61722 
1 2.16796 -2.59607 -1.01528 
1 1.80566 1.36994 -2.5166 
1 -2.09995 3.39607 0.300274 
1 -1.09669 0.517751 0.0557095 
1 3.03906 -1.10517 2.86784 
1 2.75899 1.98683 2.63247 
1 -0.257835 -1.16963 0.459618 
1 -1.63665 -3.32161 -0.228567 
1 -0.105663 0.357571 -2.91227 
1 -0.900512 3.13164 2.38042 
1 -1.13141 -2.60747 2.64805 
1 0.0703484 -2.57588 -0.77182 
1 -1.72738 0.717705 -0.853366 
1 1.95506 -1.12081 1.08387 
1 -0.812613 1.87362 1.25168 
1 -2.51373 3.72827 2.48745 
1 2.31724 2.39686 -0.159521 
1 0.487161 -0.0181584 -0.779953 
1 -2.45869 -2.35552 -0.870118 
1 -2.27683 -3.67011 -2.42537 
1 -3.46341 3.13599 1.65296 
1 2.1219 -2.92568 -2.85224 
1 2.17841 1.60463 0.567233 
1 1.55636 3.7009 1.08867 
1 -2.85115 1.64634 0.411859 
1 1.62536 -3.16691 0.133278 
1 -3.41427 2.26736 1.01275 
1 2.60659 -0.128313 3.4865 
1 -0.786902 -0.730779 1.94569 
1 2.99028 -1.56805 -0.483854 
1 0.207026 3.69321 -1.25763 
1 -3.01747 -0.432182 0.0827546 
1 -1.87525 -2.53502 -2.79561 
1 -0.705958 2.87708 3.36197 
1 3.21473 -3.63784 1.11499 
1 2.97983 -0.319093 -2.26151 
1 -0.238452 1.06418 -2.11106 
1 -2.82251 -1.14232 2.49393 
1 -3.56462 2.72975 -3.50331 
1 2.37214 -1.17446 -2.06548 
1 3.74142 2.23318 3.05357 
1 1.48547 -2.81373 2.93742 
1 2.91517 3.23561 -1.60765 
1 3.24122 -3.39314 3.30079 
1 -2.5205 2.44911 -1.0919 
1 3.18622 2.87445 -0.585074 
1 -0.110353 2.54354 2.01318 
1 3.51986 -1.0924 -1.81362 
1 2.07832 2.82663 2.62612 
1 -0.445041 -0.960925 -1.6722 
1 -2.28952 3.62418 1.40583 
1 -2.23479 -3.34364 -3.45952 
1 1.30658 1.86285 -0.00781585 
1 -3.37402 1.23352 3.09112 
1 1.52972 2.4184 -0.913631 
1 0.211473 1.67962 1.45943 
1 -2.66868 -2.86528 -1.87082 
1 0.494167 -0.940113 -2.24566 
1 -3.01106 3.17914 -0.366562 
1 3.04993 2.86552 -2.88979 
1 1.18357 -2.49869 -1.58204 
1 -2.19098 2.3784 -0.0846504 
1 -2.90296 0.339926 3.35752 
1 2.58288 0.639565 -2.49584 
1 2.50521 0.179267 0.804022 
1 2.0956 -2.20941 -2.04999 
1 -3.32309 -0.204582 -1.62467 
1 1.37794 3.56529 3.21709 
1 0.0950461 1.94409 -1.65521 
1 -2.49257 2.77888 2.07521 
1 -0.286257 -1.95411 2.24205 
1 -1.14471 3.63196 1.5179 
1 -1.49294 1.92073 2.63537 
1 0.133581 -1.15904 1.61749 
1 -2.26898 1.00649 2.74144 
1 0.155882 -0.0467887 1.68866 
1 -0.495109 -3.33696 -0.209264 
1 -0.530561 -1.94742 1.13888 
1 -0.744478 -3.10672 -1.27675 
1 0.255441 0.937706 -1.19427 
1 -3.54169 -1.10251 -0.835715 
1 3.16752 -1.55979 1.85564 
1 -3.64096 -0.372105 0.957938 
1 -1.17071 3.69107 -1.92036 
1 0.959969 -0.661579 1.14404 
1 3.06394 3.04011 3.32632 
1 -2.54278 1.46657 -0.67847 
1 -0.911141 1.95241 -2.17074 
1 -3.46138 1.71803 -1.27273 
1 1.13423 -0.223426 -1.6949 
1 0.698659 2.86272 -1.75864 
1 2.88848 -0.717125 0.418381 
1 2.83095 1.26063 -1.6437 
1 -2.46966 2.81413 -2.0879 
1 -1.70189 -1.72876 -0.0738769 
1 -1.32103 2.48434 0.526405 
1 3.80213 1.66702 -3.45906 
1 -2.60292 1.97708 2.8463 
1 -2.11127 -0.926488 0.474036 
1 -2.32806 -2.55735 0.20962 
1 0.530564 3.35243 -2.77596 
1 1.26052 2.66657 -3.05647 
1 1.34719 -1.61315 2.77893 
1 0.538925 0.151336 3.67805 
1 -0.942528 -2.69363 -2.23726 
1 2.35941 1.2461 3.28507 
1 3.5223 1.31108 2.21013 
1 2.46548 3.48359 1.63681 
1 -0.0614412 -0.979203 -0.69708 
1 -0.424447 -0.658094 -2.71529 
1 -2.38548 0.657838 1.7322 
1 1.81463 3.22204 -1.52185 
1 -1.51415 2.90336 -2.59937 
1 0.393086 -0.835158 -3.36038 
1 2.08772 -1.17416 3.39785 
1 -0.407006 -3.30588 0.901041 
1 1.88091 -0.196352 1.65251 
1 0.7486 2.85243 -0.342465 
1 0.387313 2.3499 0.585894 
1 -2.65575 -1.33819 -3.30205 
1 3.16332 -2.76287 -3.1235 
1 3.36561 -2.18661 2.756 
1 2.43994 2.61032 0.941234 
1 -3.24469 0.456201 2.34861 
1 1.72293 3.29753 -0.323526 
1 -3.28385 1.22729 1.3994 
1 -2.22397 -1.20609 1.51897 
1 -1.56036 1.39416 3.72627 
1 -1.86983 1.79712 -2.70308 
1 3.60964 0.524872 -2.20509 
1 2.00666 1.42349 -0.765216 
1 -0.307414 -3.3041 -3.38156 
1 3.00241 -1.73854 -3.72799 
1 -2.61221 1.34538 -3.64986 
1 -0.549028 3.19543 -3.10763 
1 0.359041 0.225808 0.624317 
1 -1.44212 -0.748736 3.6049 
1 1.14508 -2.12516 -2.58409 
1 -3.50793 3.34777 2.71902 
1 -3.30213 0.727902 -3.13475 
1 2.47727 2.26055 -1.33697 
1 -1.3226 -0.651846 -2.17268 
1 1.22959 2.49288 3.19954 
1 1.62043 2.78759 1.64078 
1 3.43963 0.324985 1.66427 
1 1.24392 -2.78695 1.61561 
1 0.256534 1.14649 3.40892 
1 -2.41799 0.0175795 0.86097 
1 3.15456 -2.65177 -0.52135 
1 -3.55151 1.18612 -0.252262 
1 -1.42758 -2.79603 3.63805 
1 -1.28436 -1.74937 1.94637 
1 -3.24699 0.569472 0.538819 
1 0.326331 1.79818 -0.487138 
1 -2.79339 -2.05622 -2.50384 
1 1.5637 0.633776 2.24773 
1 -1.60359 -1.6871 -3.38515 
1 -0.70721 0.698761 3.72155 
1 0.536314 1.28701 0.504784 
1 0.00186417 2.39901 -2.70895 
1 -1.74525 -3.149 0.895478 
1 -0.973586 -1.61312 -2.49153 
1 1.56286 -2.13137 0.762387 
1 3.59869 0.660367 -1.11459 
1 2.52611 1.01069 2.21757 
1 3.14712 2.90054 2.26322 
1 2.41694 -2.68889 3.56337 
1 3.2264 -0.321679 -1.1249 
1 3.01843 -3.0432 -1.52522 
1 1.35458 -2.63176 -3.49926 
1 -0.13055 3.73275 1.89522 
1 0.70529 -3.12475 0.728692 
1 -3.10139 3.42136 0.689499 
1 -2.59867 -0.515144 -0.876815 
1 -2.11721 2.30831 -3.62915 
1 -1.87894 -3.12439 2.01971 
1 -3.57386 -3.51997 -2.04653 
1 3.74514 3.72693 -3.20432 
1 2.99924 1.61589 -2.68636 
1 0.402998 -1.68778 -1.36965 
1 1.34091 -1.39308 -1.79567 
1 -0.393259 0.895499 0.992112 
1 0.336061 3.13338 3.59177 
1 -0.100046 0.831282 -0.190839 
1 2.77022 -1.72457 0.770568 
1 -3.47492 2.82075 -1.34282 
1 -0.879204 3.41011 -0.843169 
1 0.592432 2.01998 -3.54158 
1 -3.31946 -1.26009 1.522 
1 0.8136 1.78482 -2.46244 
1 1.54632 3.74467 2.16436 
1 -1.94356 -0.110687 -0.157461 
1 3.18981 1.92649 0.404175 
1 2.47504 3.55475 0.430829 
1 -2.93703 0.803379 -1.61132 
1 0.31575 3.43653 0.439805 
1 0.545556 -1.77507 0.854722 
1 -0.558136 -1.3644 -3.5146 
1 -0.64107 -2.00694 -1.4787 
1 -1.57103 3.22551 -3.6037 
1 1.11987 1.54061 -1.38672 
1 3.07322 1.69829 -0.659166 
1 1.13725 -1.60483 -3.65381 
1 -2.76928 2.90402 3.27276 
1 1.66067 1.66559 2.64607 
1 0.620816 1.20718 2.42038 
1 -1.19571 -1.26949 -0.929679 
1 -0.443427 2.91907 1.09732 
1 -2.28529 -2.10208 2.12282 
1 1.93582 0.682353 0.0376945 
1 -0.986181 0.304724 -1.99803 
1 1.75744 -0.247939 2.82679 
1 -1.86986 1.61726 0.865544 
1 3.12501 -3.50406 2.21805 
1 0.920848 -0.745507 3.21597 
1 -1.14847 2.38475 -0.610068 
1 -0.180479 1.44513 -3.12811 
1 -3.36553 -3.00716 0.526156 
1 3.18931 0.63454 2.95126 
1 1.9142 -0.196541 -2.47938 
1 -2.72665 -3.31712 -0.394407 
1 1.0781 -0.92088 -0.85769 
1 -0.932858 -2.78869 1.64323 
1 -1.7683 -2.24119 -1.75077 
1 -2.00844 -1.39965 -2.40477 
1 2.90655 -3.56977 -2.44565 
1 -2.62828 3.19634 -3.16828 
1 3.49664 0.0512477 -0.0997852 
1 -3.18145 -1.82708 -1.54525 
1 0.716367 3.12143 2.48012 
1 3.31229 -3.61407 0.0244965 
1 2.96062 0.917056 0.129972 
1 1.5361 -1.56425 -0.162575 
1 3.41462 2.93333 0.500287 
1 -1.52901 0.588046 1.01129 
1 -1.23129 -1.07733 1.05592 
1 -1.91804 0.826136 -1.91997 
1 -3.67556 -1.26018 0.234878 
1 1.57651 0.0358624 -0.719576 
1 0.164349 -2.75444 -1.81979 
1 -0.445252 2.92422 -1.91318 
1 2.32631 -2.04586 2.71266 
1 -1.54448 -0.291764 -1.14791 
1 -0.640384 0.329681 -0.985421 
1 2.03667 -3.29124 -1.86099 
1 2.07982 -1.54148 -1.07002 
1 0.16767 -2.7051 1.57967 
1 3.60153 -3.71078 -0.96298 
1 -2.88006 2.15684 -2.88385 
1 -1.46165 1.25699 1.82148 
1 3.5205 -1.00282 -2.9191 
1 1.91973 0.91218 1.31428 
1 0.0646056 0.00646441 -1.83456 
1 -1.70211 -0.255307 1.63536 
1 -3.45137 -3.04733 2.6193 
1 -0.819554 0.403426 1.85262 
1 -0.236759 0.472398 2.73166 
1 -1.36471 -2.42323 -0.769639 
1 -0.736163 -2.3502 -3.21649 
1 -3.71413 -2.06458 0.944967 
1 2.18732 -2.9994 1.05291 
1 1.72494 -0.56266 0.212088 
1 0.635678 3.10658 1.39622 
1 -0.0951398 2.68815 -0.952128 
1 2.57891 0.496585 -0.82413 
1 -3.57537 -2.64049 3.58789 
1 0.616359 -3.05145 -2.78582 
1 -1.07634 -2.56055 0.321367 
1 -0.323268 -3.55266 -2.30331 
1 -1.81971 0.298632 3.54199 
1 -2.28348 -0.479663 -1.86358 
1 -3.44246 -2.76987 -1.15187 
1 1.40463 2.78174 0.559903 
1 -3.55984 -1.92457 -3.17459 
1 -1.9466 3.27085 -0.756176 
2 2.52143 2.60747 -2.14567 
2 3.75838 1.31241 0.630688 
2 1.34216 1.40034 1.85951 
2 -1.80576 0.0849407 -2.39244 
2 2.81948 -1.09534 -1.25627 
2 1.04273 3.3572 -1.03929 
2 1.39938 1.11743 0.600644 
2 0.113847 -0.552816 0.941969 
2 1.22717 -1.27777 0.589166 
2 -1.6371 0.463772 2.18462 
2 -1.37526 3.0734 -0.138615 
2 2.59553 0.043379 -0.0555467 
2 -2.95084 2.60792 0.330323 
2 -1.03183 -3.43382 2.26934 
2 -1.35137 2.28565 3.42512 
2 -3.21357 2.26577 -1.98692 
2 -3.43285 -0.221366 -0.741402 
2 -3.17611 0.345345 1.38899 
2 3.24752 1.47714 3.24175 
2 -1.75284 -3.05245 -2.0993 
2 -0.677433 2.30457 2.66319 
2 3.33893 -2.0337 0.15018 
2 -2.54382 1.00135 0.955059 
2 -3.00903 1.32285 2.27265 
2 3.37047 0.389147 0.755882 
2 1.38946 -2.94197 -2.35359 
2 1.31032 3.15842 -2.3158 
2 3.67501 2.22005 -2.78637 
2 1.21387 -1.78262 -0.997265 
2 -1.25629 -0.929108 -3.0128 
2 2.52103 -3.13582 -0.01319 
2 -1.75065 3.39743 2.13951 
2 1.17256 3.60981 0.295455 
2 1.06093 0.562851 -1.23979 
2 2.77354 -2.86031 2.76183 
2 0.939043 1.65397 3.16613 
2 3.41271 -1.18173 1.03818 
2 3.17458 -0.82131 -3.73302 
2 -0.173214 -2.72757 -2.66776 
2 -1.107 1.25682 0.611173 
2 0.638816 -1.52061 -2.91656 
2 2.80728 -2.67941 -2.30123 
2 -1.55253 -0.256918 0.674638 
2 0.406854 -0.709548 -1.39894 
2 -1.00817 -1.6651 0.446652 
2 -0.727901 2.23689 -1.37074 
2 -2.8479 -0.788082 0.935382 
2 -1.65217 3.14292 1.00826 
2 2.34604 2.9826 -0.86157 
2 -0.992865 -2.02893 3.44716 
2 -1.00972 -3.70038 3.68942 
2 2.47451 0.010297 -3.11701 
2 2.3615 1.45649 -3.27381 
2 0.692218 2.30015 -1.09274 
2 0.0552177 3.40212 -0.436732 
2 -1.06776 1.1628 -1.75512 
2 1.80088 -3.31816 3.62406 
2 -3.00009 2.12284 3.64101 
2 -0.280448 -2.86379 2.35636 
2 -2.56659 -1.49335 3.31131 
2 3.67028 -1.97359 -0.900721 
2 -2.1871 3.57819 3.31015 
2 -0.201625 2.37373 -3.60365 
2 0.664017 -3.09328 -1.16771 
2 -2.53673 0.168105 -3.35401 
2 1.98019 1.58381 -1.65676 
2 -0.793881 -0.504838 -0.743595 
2 3.74418 0.538893 3.60835 
2 1.51081 0.558001 -2.59943 
2 -2.69215 1.06461 -2.46231 
2 -2.73284 -2.88411 2.13416 
2 3.82803 -1.47357 2.47243 
2 0.867858 -2.37128 0.282838 
2 -3.5965 -1.66032 -2.35136 
2 2.25081 0.477438 2.88154 
2 -1.95782 3.42575 -1.64831 
2 -0.00642812 0.841043 1.85393 
2 -3.05936 -0.327055 2.74084 
2 1.02241 0.0940617 -0.0196009 
2 0.670994 -3.49216 1.60098 
2 3.17174 2.98532 1.35499 
2 -1.39091 -1.43393 -1.7506 
2 -2.31974 0.221754 -1.31464 
2 -1.90797 -0.944646 -0.490409 
2 -2.96345 -0.990023 -1.51245 
2 -0.0983571 3.07367 2.76078 
2 0.533862 -1.42868 2.37147 
2 2.10885 2.14481 3.2485 
2 2.45561 2.61836 1.84861 
2 2.33207 -1.32448 0.101629 
2 -2.57429 -3.34715 0.652838 
2 0.813627 -2.29245 3.32319 
2 1.79214 -2.06445 3.42458 
2 3.29359 -0.759489 -0.35033 
2 -3.59481 -0.281073 -2.50246 
2 2.56376 0.358602 1.64836 
2 1.58778 -2.27233 2.24522 
2 2.87364 0.347524 -1.66355 
2 1.04327 0.0352708 1.7453 
2 -3.56885 -3.08675 -0.341646 
