ITEM: TIMESTEP
879
ITEM: NUMBER OF ATOMS
500
ITEM: BOX BOUNDS xy xz yz pp pp pp
-3.7345 3.86147 0.126973
-3.7345 3.7345 0
-3.7345 3.7345 0
ITEM: ATOMS type xu yu zu 
1 0.672294 -2.30105 2.44559 
1 -2.67119 -1.4142 -0.322438 
1 2.07535 -1.88818 -3.1788 
1 -0.300792 -0.19767 -0.0596298 
1 1.13429 -2.50942 -0.529049 
1 -1.54761 -3.60939 2.96111 
1 2.14672 3.29797 -2.53967 
1 -1.14866 -0.136437 2.75587 
1 2.23144 -0.306892 -1.48835 
1 -3.36574 -2.23392 1.92685 
1 1.24566 1.84575 1.10149 
1 -1.71857 -2.03717 0.995913 
1 -1.17406 0.010632 -3.06154 
1 2.08071 2.9027 3.73428 
1 -2.08734 -0.500905 -2.9976 
1 1.00054 0.904504 -0.408342 
1 1.06738 -0.748574 2.16866 
1 -1.20405 0.916524 2.8134 
1 -3.33946 -2.229 -0.192325 
1 -2.75866 -1.70824 0.710273 
1 -3.46754 1.48757 -2.34192 
1 -2.17991 -1.38501 -1.29651 
1 2.12825 1.84787 1.7014 
1 -2.36157 2.58906 0.998509 
1 -2.5478 -2.31629 -3.62071 
1 1.46181 -3.38636 -0.979066 
1 -1.81676 -1.8898 3.0707 
1 -0.652803 1.4493 -0.955088 
1 0.911448 0.97003 -3.16681 
1 -2.77453 0.164685 -2.46929 
1 3.0665 -2.74554 0.555756 
1 -2.60867 -2.6506 1.25675 
1 -1.153 -0.801781 0.0219141 
1 3.67944 -0.266515 3.24179 
1 3.34696 -0.0101762 -3.20767 
1 -2.206 0.834309 0.172596 
1 -2.86395 0.443194 -0.588797 
1 -1.77064 -0.977393 2.50613 
1 -2.23569 -0.0295257 2.5701 
1 2.8579 2.08038 -3.71186 
1 3.01368 -1.97262 -1.49284 
1 -0.457947 -3.56097 2.97843 
1 0.0330029 -1.89109 -2.404 
1 0.50116 -3.3047 2.48385 
1 0.885773 -0.0690224 -2.76298 
1 3.16158 2.11049 1.55601 
1 2.42668 -0.676455 -0.537312 
1 -2.4 1.75054 1.77653 
1 2.87961 -0.605926 1.46813 
1 0.66055 -0.710753 0.128409 
1 -1.07827 1.06098 -2.75187 
1 -1.46798 2.70733 -1.56182 
1 -3.03284 -0.976191 -2.38348 
1 -0.690663 -0.164712 0.936365 
1 2.49913 -0.872225 -3.12794 
1 -1.79133 2.87692 2.88541 
1 0.93277 -3.56859 -1.901 
1 2.18503 -2.96331 2.12183 
1 0.920157 2.16405 2.10076 
1 -0.828383 -1.32725 2.91157 
1 -0.422595 2.82124 0.0200975 
1 0.212055 2.22064 2.96006 
1 1.84985 0.68814 -1.66336 
1 -3.34979 2.15858 2.0785 
1 0.57184 -3.16326 3.53267 
1 -3.11525 -3.56816 3.49688 
1 -1.62838 1.69656 -1.30429 
1 -3.3598 -3.2963 1.59736 
1 -0.245664 -2.52348 3.21544 
1 -0.580707 -1.84039 -0.314031 
1 -3.4563 2.97796 -2.44343 
1 -0.633238 1.74339 3.34832 
1 1.17308 -1.68014 1.70115 
1 1.42861 -1.07407 -2.80173 
1 0.60767 -3.46564 -0.357506 
1 1.34885 -3.70265 -3.1908 
1 -1.50143 2.57934 1.69163 
1 2.50887 -3.7072 -3.44485 
1 1.62823 2.32862 -2.01871 
1 -3.10902 -3.00244 -2.92413 
1 0.0311997 -0.67805 2.62122 
1 -1.29856 -3.43323 -2.94051 
1 1.9638 0.675316 -3.36185 
1 -0.992932 2.20384 -3.23202 
1 3.34296 2.27779 -1.95798 
1 -2.82309 -0.354937 1.7586 
1 -0.452855 1.50365 2.2887 
1 2.49205 -3.63655 -0.733168 
1 1.38118 0.22583 0.785351 
1 -3.17295 -0.402618 -3.31757 
1 -0.42893 -0.342552 3.5845 
1 -3.02762 -2.08767 2.89634 
1 2.1971 -2.02803 1.63148 
1 -1.01892 3.55359 0.477288 
1 0.738855 0.14501 2.607 
1 -2.32636 -2.87639 2.97754 
1 2.72121 -0.121325 2.39138 
1 -0.4893 1.7587 0.218447 
1 -1.90477 -3.24917 -1.24804 
1 -2.03713 0.742502 -2.97099 
1 3.12066 -2.62111 1.64297 
1 0.504975 -1.71988 -0.232231 
1 -3.47442 -1.26445 3.414 
1 1.32181 0.818391 3.26392 
1 -3.44473 2.23257 -0.295987 
1 3.00257 1.13029 1.17414 
1 0.816369 0.819634 1.44312 
1 -0.0142743 -2.49614 0.307741 
1 0.24336 -1.58014 3.19532 
1 2.20978 2.25746 -2.89464 
1 3.05109 0.930109 -3.48507 
1 3.70616 -2.50029 -2.18527 
1 2.14734 -1.09337 2.20556 
1 0.831791 0.765827 -2.088 
1 -1.48274 1.51798 -0.157735 
1 3.71127 -0.586269 2.21664 
1 -2.52289 1.73768 -1.88339 
1 0.314699 -2.22115 -3.38245 
1 -2.73437 3.63935 -1.35012 
1 1.6145 -0.307684 -3.5454 
1 -2.47448 -0.63207 3.39083 
1 2.98564 -1.84478 -2.59401 
1 2.29473 -2.27075 -0.0102872 
1 2.27064 -3.64169 2.93372 
1 1.60262 1.7181 -3.61674 
1 2.16737 -2.59508 -1.01471 
1 1.81112 1.36972 -2.51675 
1 -2.09171 3.39522 0.300478 
1 -1.09327 0.517284 0.0558364 
1 3.04208 -1.1052 2.86759 
1 2.76416 1.98681 2.63254 
1 -0.255757 -1.17045 0.460625 
1 -1.63619 -3.32297 -0.228534 
1 -0.101693 0.356491 -2.91132 
1 -0.893504 3.13264 2.38205 
1 -1.13 -2.60692 2.64965 
1 0.0689421 -2.57672 -0.773022 
1 -1.72462 0.717964 -0.852595 
1 1.95737 -1.12099 1.08361 
1 -0.808764 1.87329 1.2511 
1 -2.50676 3.72823 2.48711 
1 2.32335 2.39698 -0.159812 
1 0.490731 -0.0188499 -0.779865 
1 -2.45641 -2.35634 -0.870064 
1 -2.27777 -3.6701 -2.42532 
1 -3.45658 3.13721 1.6531 
1 2.12245 -2.92609 -2.85197 
1 2.18416 1.60553 0.567494 
1 1.56483 3.70046 1.08794 
1 -2.84692 1.64604 0.4127 
1 1.62567 -3.16655 0.132564 
1 -3.40772 2.26756 1.01476 
1 2.61065 -0.128936 3.4862 
1 -0.783454 -0.731077 1.94573 
1 2.99217 -1.56698 -0.482725 
1 0.215174 3.69286 -1.25767 
1 -3.01336 -0.432473 0.0830167 
1 -1.87524 -2.53442 -2.79595 
1 -0.698847 2.87721 3.36331 
1 3.21372 -3.63784 1.11503 
1 2.98392 -0.319601 -2.26166 
1 -0.233765 1.06337 -2.11011 
1 -2.8194 -1.1428 2.49418 
1 -3.55858 2.73003 -3.50311 
1 2.37443 -1.17415 -2.06472 
1 3.74674 2.23257 3.05458 
1 1.48696 -2.81338 2.93656 
1 2.92256 3.23656 -1.60629 
1 3.24162 -3.39444 3.30029 
1 -2.5154 2.44913 -1.09123 
1 3.19302 2.87522 -0.583705 
1 -0.104366 2.54418 2.01388 
1 3.52254 -1.09298 -1.81286 
1 2.08459 2.82697 2.62647 
1 -0.439967 -0.963596 -1.67445 
1 -2.28187 3.6254 1.40615 
1 -2.23625 -3.3439 -3.45889 
1 1.31225 1.86232 -0.00820041 
1 -3.36878 1.23309 3.09192 
1 1.53548 2.41852 -0.913926 
1 0.215983 1.68025 1.45924 
1 -2.668 -2.86557 -1.87002 
1 0.497984 -0.939809 -2.24648 
1 -3.00509 3.17982 -0.365692 
1 3.05571 2.86616 -2.89039 
1 1.18476 -2.49952 -1.5831 
1 -2.1874 2.37742 -0.0837744 
1 -2.89849 0.339155 3.35765 
1 2.58728 0.638672 -2.4961 
1 2.50976 0.18032 0.803489 
1 2.09744 -2.20911 -2.04979 
1 -3.31935 -0.204712 -1.62486 
1 1.38581 3.56523 3.21562 
1 0.100572 1.94357 -1.65498 
1 -2.4866 2.7788 2.07517 
1 -0.284161 -1.95359 2.24106 
1 -1.13667 3.63221 1.51902 
1 -1.48755 1.92122 2.63672 
1 0.136709 -1.15874 1.61601 
1 -2.26454 1.00666 2.74176 
1 0.159648 -0.0464726 1.6882 
1 -0.496414 -3.33808 -0.210754 
1 -0.529147 -1.9491 1.13824 
1 -0.744186 -3.10825 -1.28023 
1 0.260276 0.937579 -1.19336 
1 -3.53862 -1.10213 -0.835202 
1 3.17006 -1.55923 1.85458 
1 -3.63705 -0.371949 0.958258 
1 -1.16469 3.6896 -1.9235 
1 0.963421 -0.659467 1.1435 
1 3.0697 3.03929 3.32616 
1 -2.53853 1.46677 -0.678027 
1 -0.90564 1.95149 -2.1696 
1 -3.45661 1.71828 -1.27297 
1 1.13833 -0.224096 -1.6945 
1 0.704995 2.86192 -1.75833 
1 2.89121 -0.716901 0.41819 
1 2.83593 1.26044 -1.64374 
1 -2.46522 2.81493 -2.08675 
1 -1.69879 -1.72875 -0.0761881 
1 -1.316 2.486 0.525151 
1 3.80774 1.66733 -3.45864 
1 -2.59786 1.97747 2.84651 
1 -2.10757 -0.927144 0.473869 
1 -2.32553 -2.55666 0.209269 
1 0.537589 3.35222 -2.77534 
1 1.26688 2.66554 -3.05561 
1 1.34958 -1.61274 2.77823 
1 0.542513 0.151698 3.67813 
1 -0.942398 -2.69348 -2.23943 
1 2.36445 1.24589 3.28493 
1 3.52723 1.31169 2.21125 
1 2.47272 3.48299 1.63752 
1 -0.0598505 -0.978714 -0.697879 
1 -0.421352 -0.659211 -2.71629 
1 -2.38159 0.657736 1.73259 
1 1.82254 3.22144 -1.52247 
1 -1.51114 2.90132 -2.6004 
1 0.396566 -0.835051 -3.36073 
1 2.09081 -1.17477 3.3976 
1 -0.40638 -3.30473 0.90119 
1 1.88423 -0.195889 1.6511 
1 0.755178 2.85207 -0.342391 
1 0.392985 2.35012 0.585061 
1 -2.65321 -1.33833 -3.30099 
1 3.16399 -2.76254 -3.12288 
1 3.3665 -2.18626 2.75357 
1 2.44664 2.61094 0.94134 
1 -3.24068 0.456407 2.34894 
1 1.72943 3.29726 -0.323469 
1 -3.28033 1.22684 1.3996 
1 -2.2209 -1.2058 1.51882 
1 -1.555 1.39388 3.72684 
1 -1.86455 1.79606 -2.70227 
1 3.61378 0.525124 -2.20507 
1 2.0124 1.42439 -0.765485 
1 -0.305735 -3.3067 -3.38112 
1 3.00552 -1.73962 -3.72852 
1 -2.60689 1.34505 -3.64893 
1 -0.543864 3.19448 -3.10532 
1 0.363404 0.225939 0.624017 
1 -1.43842 -0.748665 3.60482 
1 1.14778 -2.12573 -2.58481 
1 -3.50067 3.34672 2.7193 
1 -3.29801 0.727742 -3.13476 
1 2.48304 2.26105 -1.33691 
1 -1.31862 -0.653229 -2.17194 
1 1.2355 2.49304 3.19975 
1 1.6269 2.78769 1.64101 
1 3.44355 0.325277 1.66471 
1 1.24529 -2.78689 1.61497 
1 0.261714 1.14688 3.40862 
1 -2.41368 0.0172071 0.861383 
1 3.15552 -2.65121 -0.521207 
1 -3.54625 1.18636 -0.252333 
1 -1.43258 -2.79158 3.63868 
1 -1.2827 -1.74992 1.94612 
1 -3.24203 0.569346 0.538806 
1 0.331809 1.79786 -0.486599 
1 -2.79137 -2.05583 -2.5023 
1 1.56843 0.633848 2.2476 
1 -1.60123 -1.68735 -3.38611 
1 -0.701878 0.698447 3.72174 
1 0.541001 1.28722 0.5049 
1 0.00824428 2.39843 -2.70849 
1 -1.74395 -3.14781 0.896723 
1 -0.970545 -1.61433 -2.4934 
1 1.56438 -2.13273 0.76278 
1 3.60358 0.660277 -1.11427 
1 2.53103 1.01055 2.21739 
1 3.15423 2.89963 2.26332 
1 2.41839 -2.68957 3.56282 
1 3.23039 -0.32135 -1.12471 
1 3.0184 -3.04232 -1.52497 
1 1.35623 -2.63184 -3.50001 
1 -0.122894 3.7331 1.89574 
1 0.706034 -3.1251 0.729049 
1 -3.09337 3.42271 0.690028 
1 -2.59497 -0.515199 -0.876878 
1 -2.11102 2.30806 -3.62806 
1 -1.87809 -3.1243 2.02093 
1 -3.57336 -3.51947 -2.0465 
1 3.75264 3.72737 -3.20411 
1 3.00525 1.61464 -2.68599 
1 0.405237 -1.6887 -1.36916 
1 1.34323 -1.39402 -1.79553 
1 -0.388641 0.895564 0.992154 
1 0.342984 3.13324 3.59283 
1 -0.0964734 0.831567 -0.190122 
1 2.77279 -1.72361 0.76978 
1 -3.46934 2.82114 -1.3429 
1 -0.87281 3.40978 -0.847039 
1 0.598524 2.01965 -3.54124 
1 -3.31637 -1.25978 1.52212 
1 0.819303 1.78397 -2.46186 
1 1.55354 3.74518 2.16358 
1 -1.94005 -0.110888 -0.157274 
1 3.19606 1.92737 0.404237 
1 2.4829 3.554 0.429228 
1 -2.9324 0.803514 -1.6111 
1 0.322225 3.43674 0.439484 
1 0.54666 -1.77811 0.854999 
1 -0.55492 -1.36548 -3.5154 
1 -0.639801 -2.00808 -1.47979 
1 -1.56489 3.22549 -3.60382 
1 1.12519 1.53988 -1.38616 
1 3.07888 1.69888 -0.659173 
1 1.13994 -1.60474 -3.65434 
1 -2.76218 2.90443 3.27424 
1 1.66597 1.66575 2.64582 
1 0.625666 1.20779 2.42005 
1 -1.19168 -1.26756 -0.931397 
1 -0.43697 2.91772 1.09712 
1 -2.2842 -2.10213 2.12231 
1 1.94173 0.683926 0.0365877 
1 -0.981735 0.303769 -1.99872 
1 1.76119 -0.248005 2.82662 
1 -1.86455 1.61819 0.86498 
1 3.12557 -3.50505 2.21748 
1 0.92431 -0.744942 3.21574 
1 -1.14421 2.38571 -0.609954 
1 -0.174083 1.44427 -3.12748 
1 -3.36343 -3.00609 0.525383 
1 3.19409 0.63388 2.95101 
1 1.91811 -0.197175 -2.47935 
1 -2.72583 -3.31719 -0.392961 
1 1.08146 -0.921517 -0.856946 
1 -0.931515 -2.78894 1.64487 
1 -1.76717 -2.24236 -1.75053 
1 -2.00516 -1.40028 -2.40501 
1 2.90674 -3.56992 -2.44521 
1 -2.62258 3.19654 -3.16724 
1 3.5015 0.0513648 -0.0992845 
1 -3.17896 -1.82715 -1.54401 
1 0.722927 3.12206 2.47987 
1 3.31338 -3.61356 0.0251532 
1 2.9663 0.917891 0.129899 
1 1.53612 -1.56666 -0.16135 
1 3.42313 2.93369 0.500796 
1 -1.52495 0.588637 1.01178 
1 -1.22803 -1.0771 1.05621 
1 -1.91318 0.825752 -1.91941 
1 -3.6727 -1.25972 0.2348 
1 1.58049 0.0357679 -0.719144 
1 0.165469 -2.75481 -1.82048 
1 -0.43873 2.92384 -1.91287 
1 2.32757 -2.04642 2.71201 
1 -1.54118 -0.29021 -1.14844 
1 -0.637071 0.331411 -0.985462 
1 2.03703 -3.291 -1.86045 
1 2.08157 -1.53953 -1.06823 
1 0.169061 -2.70552 1.57998 
1 3.60087 -3.71017 -0.96279 
1 -2.87443 2.15725 -2.8832 
1 -1.45816 1.25775 1.82223 
1 3.52458 -1.00301 -2.91942 
1 1.9238 0.912584 1.31383 
1 0.0684997 0.00567051 -1.83352 
1 -1.6982 -0.254891 1.63574 
1 -3.45152 -3.04749 2.61829 
1 -0.815565 0.404165 1.85286 
1 -0.23245 0.47277 2.73167 
1 -1.36195 -2.42534 -0.769871 
1 -0.734034 -2.35192 -3.21917 
1 -3.71191 -2.06395 0.944992 
1 2.18911 -3.00051 1.05191 
1 1.72566 -0.564872 0.211296 
1 0.642346 3.10674 1.39582 
1 -0.0886275 2.68785 -0.951881 
1 2.58349 0.497202 -0.824691 
1 -3.57738 -2.63943 3.58642 
1 0.617156 -3.05135 -2.78619 
1 -1.07532 -2.56096 0.32052 
1 -0.323548 -3.55276 -2.30276 
1 -1.81559 0.298575 3.54218 
1 -2.27977 -0.48038 -1.86368 
1 -3.4417 -2.76979 -1.15159 
1 1.41099 2.78121 0.559869 
1 -3.55736 -1.92587 -3.17379 
1 -1.93988 3.26968 -0.755821 
2 2.52648 2.61063 -2.14444 
2 3.76238 1.31135 0.630531 
2 1.34712 1.40045 1.85935 
2 -1.80146 0.084023 -2.3917 
2 2.82173 -1.09431 -1.25558 
2 1.05077 3.35604 -1.03936 
2 1.40472 1.1188 0.59881 
2 0.117172 -0.55253 0.940785 
2 1.22812 -1.27926 0.59096 
2 -1.63312 0.464209 2.18509 
2 -1.36491 3.07736 -0.139729 
2 2.60126 0.0451221 -0.0558455 
2 -2.94646 2.60848 0.331566 
2 -1.03171 -3.43353 2.27078 
2 -1.34527 2.28707 3.426 
2 -3.20855 2.26586 -1.98692 
2 -3.42868 -0.220822 -0.741531 
2 -3.17215 0.345124 1.38902 
2 3.25255 1.47671 3.24127 
2 -1.75269 -3.05273 -2.10015 
2 -0.671707 2.3051 2.66383 
2 3.34183 -2.03349 0.150123 
2 -2.53909 1.00211 0.955836 
2 -3.00462 1.32311 2.27292 
2 3.37525 0.38954 0.756165 
2 1.38993 -2.94321 -2.35402 
2 1.31727 3.15706 -2.31508 
2 3.68028 2.22023 -2.78629 
2 1.21651 -1.78348 -0.997488 
2 -1.25364 -0.929602 -3.01278 
2 2.52209 -3.13546 -0.0112014 
2 -1.74347 3.39796 2.13956 
2 1.17948 3.60979 0.295546 
2 1.06541 0.562564 -1.23925 
2 2.77503 -2.86069 2.76101 
2 0.944622 1.6541 3.16617 
2 3.41576 -1.18129 1.03796 
2 3.17833 -0.822115 -3.73326 
2 -0.172279 -2.72746 -2.66802 
2 -1.10208 1.25658 0.610461 
2 0.642009 -1.52059 -2.9169 
2 2.80849 -2.67906 -2.30142 
2 -1.5489 -0.256897 0.674662 
2 0.410871 -0.711046 -1.3991 
2 -1.00688 -1.66533 0.446826 
2 -0.722207 2.23786 -1.37016 
2 -2.84404 -0.788006 0.935704 
2 -1.64485 3.14358 1.00961 
2 2.35338 2.98354 -0.861287 
2 -0.991402 -2.02903 3.44523 
2 -1.00838 -3.70286 3.68989 
2 2.47825 0.00910393 -3.11715 
2 2.36701 1.45604 -3.27312 
2 0.698097 2.29921 -1.09249 
2 0.0626973 3.4019 -0.437123 
2 -1.06274 1.16163 -1.75361 
2 1.80143 -3.31847 3.62297 
2 -2.99402 2.12298 3.64169 
2 -0.280111 -2.86354 2.35602 
2 -2.56672 -1.49439 3.3125 
2 3.67146 -1.97279 -0.90068 
2 -2.18036 3.57938 3.30975 
2 -0.195718 2.37253 -3.60282 
2 0.664493 -3.09316 -1.16783 
2 -2.53284 0.168905 -3.3533 
2 1.9856 1.58384 -1.65673 
2 -0.791557 -0.502507 -0.742283 
2 3.74883 0.53799 3.60823 
2 1.51556 0.557938 -2.59937 
2 -2.68638 1.06491 -2.46203 
2 -2.73242 -2.8843 2.13349 
2 3.83072 -1.47354 2.47172 
2 0.86968 -2.37229 0.282199 
2 -3.59384 -1.66003 -2.35103 
2 2.25486 0.477396 2.88147 
2 -1.95146 3.42569 -1.64814 
2 -0.00186886 0.841448 1.85395 
2 -3.05545 -0.327176 2.7404 
2 1.02486 0.0914212 -0.0203583 
2 0.672226 -3.4924 1.60142 
2 3.17882 2.98488 1.35525 
2 -1.38718 -1.43657 -1.75147 
2 -2.31595 0.22142 -1.31499 
2 -1.90433 -0.944465 -0.490991 
2 -2.96001 -0.990339 -1.51185 
2 -0.0913268 3.07357 2.76199 
2 0.536507 -1.42806 2.37027 
2 2.11426 2.14487 3.24847 
2 2.4621 2.61792 1.84916 
2 2.33216 -1.32334 0.101743 
2 -2.57229 -3.34671 0.651659 
2 0.815268 -2.29242 3.3225 
2 1.79401 -2.06476 3.42397 
2 3.29682 -0.758758 -0.350154 
2 -3.59086 -0.280667 -2.5028 
2 2.56756 0.358522 1.64807 
2 1.58955 -2.27208 2.2441 
2 2.87834 0.347398 -1.66382 
2 1.04698 0.0358764 1.74599 
2 -3.56805 -3.08642 -0.34163 
