ITEM: TIMESTEP
928
ITEM: NUMBER OF ATOMS
500
ITEM: BOX BOUNDS xy xz yz pp pp pp
-3.7345 3.87641 0.141911
-3.7345 3.7345 0
-3.7345 3.7345 0
ITEM: ATOMS type xu yu zu 
1 0.676926 -2.29963 2.44304 
1 -2.66542 -1.41429 -0.322778 
1 2.08117 -1.88962 -3.18088 
1 -0.293669 -0.198019 -0.058368 
1 1.13134 -2.51116 -0.531869 
1 -1.54609 -3.60714 2.96538 
1 2.15911 3.30094 -2.54113 
1 -1.14065 -0.136532 2.75556 
1 2.23988 -0.304708 -1.48829 
1 -3.36211 -2.233 1.92589 
1 1.25563 1.84603 1.10158 
1 -1.71473 -2.03553 0.994385 
1 -1.16632 0.00970605 -3.06184 
1 2.09311 2.90294 3.73474 
1 -2.08007 -0.501435 -2.99754 
1 1.00885 0.902404 -0.406487 
1 1.07405 -0.747861 2.168 
1 -1.19515 0.916471 2.81418 
1 -3.33491 -2.22814 -0.194168 
1 -2.75416 -1.70707 0.710004 
1 -3.45646 1.48749 -2.34203 
1 -2.17329 -1.38609 -1.296 
1 2.13907 1.84768 1.70105 
1 -2.34945 2.5914 0.9993 
1 -2.54803 -2.31619 -3.62157 
1 1.46194 -3.38728 -0.979649 
1 -1.81608 -1.88731 3.06959 
1 -0.642176 1.45104 -0.95418 
1 0.921913 0.969492 -3.16724 
1 -2.76576 0.165168 -2.46846 
1 3.07083 -2.74393 0.556556 
1 -2.60611 -2.64975 1.25602 
1 -1.14604 -0.80284 0.0219926 
1 3.68763 -0.268083 3.24216 
1 3.35559 -0.00981591 -3.20821 
1 -2.19685 0.834832 0.17401 
1 -2.85432 0.443169 -0.588182 
1 -1.76437 -0.97631 2.50487 
1 -2.22794 -0.0292102 2.57096 
1 2.86851 2.07917 -3.71178 
1 3.01562 -1.97051 -1.49131 
1 -0.456324 -3.56028 2.97964 
1 0.0402285 -1.89144 -2.40378 
1 0.501667 -3.30279 2.48495 
1 0.894111 -0.0692333 -2.7631 
1 3.17278 2.1089 1.55609 
1 2.43341 -0.672444 -0.536301 
1 -2.39407 1.75061 1.77366 
1 2.8858 -0.604174 1.46728 
1 0.663726 -0.714078 0.129234 
1 -1.06695 1.06027 -2.75242 
1 -1.45675 2.70634 -1.56316 
1 -3.02701 -0.976207 -2.38208 
1 -0.684019 -0.164423 0.937263 
1 2.50609 -0.874187 -3.12795 
1 -1.77779 2.87924 2.88488 
1 0.932611 -3.56975 -1.90142 
1 2.18742 -2.96395 2.11985 
1 0.931459 2.16478 2.10029 
1 -0.822874 -1.32662 2.91056 
1 -0.411257 2.82194 0.0186461 
1 0.223698 2.22035 2.96079 
1 1.8585 0.689209 -1.6637 
1 -3.34062 2.16101 2.08113 
1 0.574124 -3.16301 3.53364 
1 -3.1165 -3.56656 3.49621 
1 -1.61821 1.69608 -1.30348 
1 -3.36033 -3.29362 1.59438 
1 -0.24006 -2.52206 3.21335 
1 -0.578489 -1.83934 -0.313713 
1 -3.44605 2.97895 -2.44297 
1 -0.622499 1.74327 3.34875 
1 1.17888 -1.67855 1.69919 
1 1.43639 -1.07505 -2.80141 
1 0.607091 -3.46622 -0.357504 
1 1.34713 -3.70273 -3.19465 
1 -1.48837 2.58111 1.69421 
1 2.50853 -3.70706 -3.44547 
1 1.6395 2.32809 -2.01885 
1 -3.11012 -2.99959 -2.92449 
1 0.0384194 -0.676701 2.61984 
1 -1.29887 -3.43153 -2.94409 
1 1.97466 0.674182 -3.36231 
1 -0.980771 2.20152 -3.23012 
1 3.35382 2.27885 -1.95826 
1 -2.81588 -0.354886 1.75986 
1 -0.444043 1.50429 2.28849 
1 2.49171 -3.63446 -0.73087 
1 1.39069 0.228817 0.779488 
1 -3.16422 -0.402034 -3.31708 
1 -0.421344 -0.343875 3.58375 
1 -3.02652 -2.08829 2.8953 
1 2.20234 -2.02867 1.62971 
1 -1.00353 3.55462 0.479988 
1 0.747281 0.146167 2.60753 
1 -2.32736 -2.87692 2.97716 
1 2.72767 -0.121199 2.39112 
1 -0.479565 1.75961 0.21916 
1 -1.90239 -3.25104 -1.24863 
1 -2.02631 0.741442 -2.96979 
1 3.12499 -2.62146 1.64413 
1 0.505468 -1.7217 -0.230696 
1 -3.47011 -1.26601 3.41624 
1 1.33189 0.818011 3.26412 
1 -3.43085 2.23315 -0.29754 
1 3.0112 1.13044 1.17407 
1 0.825708 0.819552 1.44243 
1 -0.0121497 -2.49987 0.304439 
1 0.249314 -1.57881 3.19349 
1 2.22195 2.25799 -2.89357 
1 3.0625 0.931363 -3.4855 
1 3.70823 -2.49859 -2.18353 
1 2.15324 -1.09321 2.20403 
1 0.8405 0.764592 -2.08753 
1 -1.47294 1.51822 -0.158006 
1 3.71758 -0.585771 2.21664 
1 -2.51267 1.73805 -1.88207 
1 0.319139 -2.21914 -3.38363 
1 -2.72077 3.64089 -1.34754 
1 1.62206 -0.308196 -3.54538 
1 -2.46713 -0.634815 3.39024 
1 2.98978 -1.84256 -2.59381 
1 2.29862 -2.27001 -0.00937995 
1 2.27143 -3.64217 2.93154 
1 1.61432 1.71792 -3.61627 
1 2.16634 -2.59304 -1.0136 
1 1.82205 1.36975 -2.51771 
1 -2.07565 3.39436 0.301015 
1 -1.08577 0.516753 0.056216 
1 3.04787 -1.10525 2.86691 
1 2.77424 1.98657 2.63262 
1 -0.250857 -1.17252 0.463258 
1 -1.63505 -3.32483 -0.22861 
1 -0.0940735 0.354418 -2.90962 
1 -0.879176 3.13449 2.38481 
1 -1.12766 -2.60565 2.65257 
1 0.066352 -2.57839 -0.774783 
1 -1.71827 0.718499 -0.851237 
1 1.96179 -1.12173 1.08286 
1 -0.80096 1.87221 1.25094 
1 -2.49288 3.72816 2.4864 
1 2.33528 2.39743 -0.160445 
1 0.49766 -0.0200859 -0.780174 
1 -2.45259 -2.35776 -0.870243 
1 -2.27905 -3.6703 -2.4254 
1 -3.4425 3.14021 1.6542 
1 2.12356 -2.92618 -2.85126 
1 2.19571 1.60815 0.569106 
1 1.58241 3.69921 1.08606 
1 -2.83874 1.64591 0.414432 
1 1.6254 -3.16571 0.131836 
1 -3.39496 2.26854 1.01905 
1 2.61828 -0.129125 3.48656 
1 -0.776298 -0.731816 1.94553 
1 2.99647 -1.56478 -0.480841 
1 0.230766 3.69238 -1.25743 
1 -3.00529 -0.43278 0.08349 
1 -1.87506 -2.53353 -2.79662 
1 -0.684661 2.87724 3.36567 
1 3.21165 -3.63816 1.11494 
1 2.9914 -0.31971 -2.26288 
1 -0.224583 1.06168 -2.1084 
1 -2.81367 -1.1441 2.4946 
1 -3.54586 2.73106 -3.50287 
1 2.37896 -1.173 -2.063 
1 3.7574 2.23128 3.05679 
1 1.48939 -2.81324 2.93447 
1 2.93645 3.23802 -1.60462 
1 3.24216 -3.39657 3.29942 
1 -2.50382 2.44934 -1.08976 
1 3.20645 2.8767 -0.581649 
1 -0.0920583 2.54524 2.01505 
1 3.52744 -1.09285 -1.81215 
1 2.09685 2.8274 2.62669 
1 -0.4307 -0.967364 -1.67736 
1 -2.26648 3.62764 1.40665 
1 -2.23841 -3.34429 -3.45801 
1 1.32375 1.86093 -0.00904059 
1 -3.35831 1.23205 3.09373 
1 1.54684 2.41908 -0.914839 
1 0.225277 1.68112 1.45899 
1 -2.66654 -2.86606 -1.86924 
1 0.505415 -0.939537 -2.24747 
1 -2.99313 3.18166 -0.363956 
1 3.06729 2.8669 -2.89187 
1 1.18658 -2.50105 -1.58541 
1 -2.1797 2.37621 -0.0816542 
1 -2.88951 0.337339 3.35791 
1 2.59661 0.638598 -2.49626 
1 2.5187 0.182876 0.802079 
1 2.10141 -2.20829 -2.04892 
1 -3.31167 -0.20485 -1.6249 
1 1.40084 3.5652 3.21274 
1 0.111746 1.94256 -1.6551 
1 -2.47452 2.77853 2.07549 
1 -0.279956 -1.9526 2.23931 
1 -1.12064 3.63235 1.52078 
1 -1.47686 1.92185 2.63942 
1 0.14363 -1.1584 1.61323 
1 -2.2558 1.00677 2.74232 
1 0.1671 -0.0458116 1.68777 
1 -0.498467 -3.3401 -0.212976 
1 -0.526536 -1.95241 1.1375 
1 -0.744614 -3.11087 -1.28546 
1 0.269972 0.937678 -1.19205 
1 -3.53258 -1.10129 -0.834764 
1 3.17491 -1.55818 1.85247 
1 -3.63004 -0.37125 0.958169 
1 -1.15246 3.6869 -1.92847 
1 0.970407 -0.654537 1.14261 
1 3.08171 3.03811 3.32623 
1 -2.5295 1.46723 -0.677008 
1 -0.89449 1.94958 -2.1675 
1 -3.44663 1.71867 -1.27357 
1 1.14635 -0.225729 -1.69353 
1 0.717813 2.86071 -1.75784 
1 2.89656 -0.716127 0.417754 
1 2.84641 1.26086 -1.64372 
1 -2.45595 2.81653 -2.08438 
1 -1.69304 -1.72853 -0.0793244 
1 -1.30535 2.48791 0.523033 
1 3.81938 1.6684 -3.45761 
1 -2.58783 1.978 2.84684 
1 -2.1006 -0.92795 0.47357 
1 -2.32064 -2.55522 0.208761 
1 0.551284 3.35263 -2.77486 
1 1.27889 2.66495 -3.05609 
1 1.35435 -1.61224 2.77708 
1 0.549692 0.152085 3.67832 
1 -0.942227 -2.69318 -2.24291 
1 2.37479 1.24531 3.28472 
1 3.537 1.31302 2.21412 
1 2.48743 3.48135 1.63915 
1 -0.0556211 -0.978407 -0.698712 
1 -0.414987 -0.661433 -2.71762 
1 -2.3741 0.657544 1.7334 
1 1.83747 3.22069 -1.52372 
1 -1.50438 2.89749 -2.602 
1 0.40353 -0.835114 -3.36102 
1 2.09672 -1.17566 3.39699 
1 -0.406254 -3.30318 0.901697 
1 1.89054 -0.195036 1.64828 
1 0.768075 2.85107 -0.34216 
1 0.404948 2.35015 0.583722 
1 -2.64806 -1.33873 -3.29909 
1 3.16496 -2.76159 -3.12229 
1 3.36855 -2.18574 2.74928 
1 2.46057 2.61252 0.941761 
1 -3.23281 0.456708 2.34976 
1 1.742 3.29708 -0.32369 
1 -3.27395 1.22598 1.40002 
1 -2.21499 -1.2053 1.51872 
1 -1.54388 1.39312 3.72818 
1 -1.85372 1.79401 -2.70045 
1 3.62264 0.52542 -2.20526 
1 2.02425 1.42682 -0.767075 
1 -0.302603 -3.31176 -3.37991 
1 3.01133 -1.74175 -3.73003 
1 -2.59586 1.34467 -3.64772 
1 -0.533387 3.19256 -3.10108 
1 0.371938 0.225751 0.623744 
1 -1.43111 -0.748581 3.60476 
1 1.15444 -2.12675 -2.58665 
1 -3.48636 3.34437 2.72073 
1 -3.28863 0.72761 -3.13509 
1 2.49456 2.26262 -1.33724 
1 -1.31106 -0.655936 -2.17095 
1 1.24726 2.49318 3.19995 
1 1.63991 2.78771 1.64123 
1 3.45128 0.326011 1.66573 
1 1.24797 -2.78672 1.61285 
1 0.272103 1.14728 3.4078 
1 -2.40524 0.016708 0.862301 
1 3.15768 -2.64999 -0.521037 
1 -3.53555 1.18712 -0.252882 
1 -1.44062 -2.78372 3.64004 
1 -1.27936 -1.75076 1.94593 
1 -3.23235 0.569334 0.538611 
1 0.342401 1.79754 -0.485333 
1 -2.78758 -2.05495 -2.49984 
1 1.5778 0.633864 2.24757 
1 -1.59623 -1.68774 -3.38739 
1 -0.691112 0.697789 3.72205 
1 0.550716 1.28713 0.5051 
1 0.0213718 2.39753 -2.70802 
1 -1.74097 -3.14597 0.898711 
1 -0.963835 -1.61639 -2.49625 
1 1.56754 -2.13602 0.763275 
1 3.61331 0.660316 -1.11389 
1 2.54099 1.0098 2.21698 
1 3.16873 2.89736 2.26383 
1 2.42087 -2.69107 3.56132 
1 3.23818 -0.320392 -1.12435 
1 3.01821 -3.03999 -1.52485 
1 1.35966 -2.63186 -3.50195 
1 -0.107518 3.73378 1.89694 
1 0.7061 -3.1277 0.730213 
1 -3.07767 3.42552 0.691325 
1 -2.58748 -0.515342 -0.876852 
1 -2.09833 2.30745 -3.62566 
1 -1.87644 -3.12438 2.02313 
1 -3.57245 -3.51829 -2.04676 
1 3.76765 3.72855 -3.20382 
1 3.01658 1.61421 -2.68539 
1 0.40994 -1.69071 -1.36756 
1 1.34795 -1.396 -1.79509 
1 -0.379234 0.895441 0.992484 
1 0.356837 3.1327 3.59449 
1 -0.0886035 0.831542 -0.189087 
1 2.77809 -1.72153 0.76806 
1 -3.45714 2.82193 -1.34284 
1 -0.859662 3.40897 -0.85231 
1 0.610573 2.01855 -3.54089 
1 -3.31057 -1.25882 1.52204 
1 0.831038 1.78255 -2.4613 
1 1.56778 3.7464 2.16177 
1 -1.93255 -0.111054 -0.156989 
1 3.20839 1.92935 0.404448 
1 2.49857 3.55243 0.4252 
1 -2.92306 0.803679 -1.61065 
1 0.334192 3.43659 0.438563 
1 0.548868 -1.78666 0.857065 
1 -0.548596 -1.36749 -3.51681 
1 -0.63702 -2.00985 -1.48167 
1 -1.5523 3.22526 -3.60392 
1 1.13609 1.53882 -1.38585 
1 3.09048 1.70096 -0.659285 
1 1.14555 -1.60427 -3.65497 
1 -2.74711 2.9053 3.27667 
1 1.67663 1.66553 2.64553 
1 0.635425 1.20877 2.41924 
1 -1.18447 -1.26453 -0.934085 
1 -0.4242 2.91461 1.09665 
1 -2.28161 -2.10226 2.12161 
1 1.95344 0.68881 0.0341313 
1 -0.97295 0.301569 -2.00023 
1 1.76852 -0.248296 2.82668 
1 -1.85454 1.61967 0.864211 
1 3.12688 -3.50736 2.21631 
1 0.930938 -0.744142 3.21538 
1 -1.13525 2.38691 -0.609706 
1 -0.161426 1.44261 -3.12629 
1 -3.35926 -3.0038 0.523732 
1 3.20357 0.632411 2.95087 
1 1.92567 -0.197235 -2.47928 
1 -2.72387 -3.317 -0.390405 
1 1.0882 -0.922648 -0.855363 
1 -0.929386 -2.78937 1.64799 
1 -1.76523 -2.24451 -1.75029 
1 -1.99864 -1.40171 -2.40543 
1 2.90695 -3.56998 -2.44465 
1 -2.6107 3.19696 -3.16541 
1 3.5107 0.0517733 -0.0983303 
1 -3.17457 -1.82705 -1.54224 
1 0.736009 3.12345 2.47892 
1 3.31574 -3.61251 0.0261332 
1 2.97775 0.920032 0.129556 
1 1.53646 -1.57075 -0.158552 
1 3.4399 2.93437 0.501291 
1 -1.5166 0.589355 1.01283 
1 -1.22195 -1.07676 1.05687 
1 -1.9035 0.824853 -1.91841 
1 -3.66695 -1.25878 0.234608 
1 1.58862 0.0358722 -0.717887 
1 0.166724 -2.75612 -1.82107 
1 -0.426047 2.92269 -1.9128 
1 2.33048 -2.04739 2.71042 
1 -1.53416 -0.287517 -1.14952 
1 -0.629784 0.333744 -0.985866 
1 2.03764 -3.29052 -1.85936 
1 2.08545 -1.53573 -1.06455 
1 0.171329 -2.70692 1.58066 
1 3.59903 -3.70887 -0.963025 
1 -2.86287 2.15815 -2.88167 
1 -1.45171 1.25895 1.82383 
1 3.5324 -1.00309 -2.92071 
1 1.93191 0.91311 1.31323 
1 0.0764933 0.00428799 -1.83214 
1 -1.69051 -0.254348 1.63653 
1 -3.45178 -3.04798 2.61631 
1 -0.807791 0.405494 1.85332 
1 -0.22397 0.473279 2.73158 
1 -1.35742 -2.42778 -0.770497 
1 -0.729579 -2.35508 -3.2238 
1 -3.70747 -2.06262 0.945034 
1 2.19304 -3.00313 1.04992 
1 1.72733 -0.569228 0.209847 
1 0.655906 3.10742 1.39455 
1 -0.0755675 2.68736 -0.952145 
1 2.59274 0.499071 -0.826028 
1 -3.58023 -2.63783 3.58382 
1 0.618636 -3.05038 -2.78676 
1 -1.07343 -2.56146 0.319058 
1 -0.324517 -3.55326 -2.30154 
1 -1.80735 0.298441 3.54247 
1 -2.27242 -0.481943 -1.86371 
1 -3.44019 -2.76961 -1.15159 
1 1.42462 2.77977 0.559326 
1 -3.55272 -1.92814 -3.17244 
1 -1.92637 3.26832 -0.755098 
2 2.53749 2.6144 -2.14374 
2 3.77015 1.30938 0.629909 
2 1.35698 1.40046 1.85916 
2 -1.79317 0.0822756 -2.39065 
2 2.82647 -1.09209 -1.2543 
2 1.06619 3.35408 -1.03914 
2 1.41561 1.12183 0.596368 
2 0.123353 -0.551888 0.939261 
2 1.22885 -1.28297 0.5953 
2 -1.62535 0.464738 2.18603 
2 -1.34639 3.08291 -0.14131 
2 2.61183 0.0489871 -0.0568229 
2 -2.93791 2.60984 0.333984 
2 -1.03147 -3.43305 2.27331 
2 -1.33292 2.28943 3.42783 
2 -3.19813 2.26622 -1.98724 
2 -3.42066 -0.219858 -0.741529 
2 -3.16443 0.344694 1.38891 
2 3.2627 1.47578 3.2401 
2 -1.75245 -3.05334 -2.10167 
2 -0.660269 2.30598 2.66492 
2 3.34752 -2.03301 0.149832 
2 -2.53026 1.00368 0.95742 
2 -2.99612 1.32369 2.27356 
2 3.38454 0.390696 0.756697 
2 1.39074 -2.94597 -2.35488 
2 1.33064 3.15516 -2.31476 
2 3.69143 2.22105 -2.78598 
2 1.22239 -1.78506 -0.997785 
2 -1.24774 -0.930562 -3.01289 
2 2.52381 -3.13461 -0.00771382 
2 -1.72897 3.39914 2.13965 
2 1.1927 3.60881 0.295869 
2 1.07436 0.561782 -1.23865 
2 2.77798 -2.86148 2.75908 
2 0.955819 1.65403 3.16616 
2 3.42158 -1.18003 1.03747 
2 3.1846 -0.823455 -3.73399 
2 -0.170851 -2.72767 -2.66787 
2 -1.09259 1.25597 0.6099 
2 0.648903 -1.52054 -2.9169 
2 2.81113 -2.67792 -2.3022 
2 -1.54174 -0.25704 0.674797 
2 0.418668 -0.713574 -1.39912 
2 -1.00386 -1.66565 0.447365 
2 -0.710866 2.23917 -1.3689 
2 -2.8368 -0.78736 0.936308 
2 -1.63017 3.14435 1.01165 
2 2.3676 2.98558 -0.860902 
2 -0.988579 -2.02901 3.44216 
2 -1.00534 -3.7085 3.69105 
2 2.48752 0.00700993 -3.11567 
2 2.37782 1.45532 -3.27204 
2 0.709693 2.29721 -1.09226 
2 0.0768519 3.40094 -0.43779 
2 -1.05286 1.15908 -1.75115 
2 1.80221 -3.31926 3.62015 
2 -2.98145 2.12361 3.64319 
2 -0.279749 -2.86304 2.35559 
2 -2.5669 -1.49658 3.31463 
2 3.67417 -1.97147 -0.900635 
2 -2.16632 3.58172 3.30881 
2 -0.183918 2.37002 -3.60134 
2 0.665071 -3.09308 -1.1678 
2 -2.52465 0.170255 -3.35197 
2 1.99694 1.58477 -1.65764 
2 -0.786155 -0.499303 -0.74041 
2 3.75828 0.536279 3.60816 
2 1.52447 0.558471 -2.60003 
2 -2.67509 1.06521 -2.46121 
2 -2.7315 -2.88443 2.13234 
2 3.83552 -1.47334 2.47049 
2 0.873214 -2.37658 0.28156 
2 -3.5891 -1.65924 -2.35069 
2 2.26231 0.477389 2.88146 
2 -1.93886 3.42568 -1.64768 
2 0.00726114 0.841992 1.85407 
2 -3.04778 -0.327582 2.73962 
2 1.02841 0.0866029 -0.0223217 
2 0.674829 -3.49286 1.60296 
2 3.19391 2.98336 1.35596 
2 -1.38027 -1.44138 -1.75286 
2 -2.30784 0.22072 -1.31544 
2 -1.89744 -0.944254 -0.491477 
2 -2.95309 -0.99087 -1.51078 
2 -0.0771623 3.07321 2.76426 
2 0.542047 -1.42675 2.36833 
2 2.12495 2.1449 3.24847 
2 2.4753 2.61663 1.85026 
2 2.33345 -1.32109 0.101118 
2 -2.56817 -3.34508 0.649949 
2 0.818869 -2.29197 3.32082 
2 1.79789 -2.06521 3.42251 
2 3.30338 -0.757233 -0.349873 
2 -3.58316 -0.280294 -2.50324 
2 2.57507 0.357826 1.64735 
2 1.59309 -2.27184 2.24184 
2 2.88803 0.347626 -1.6645 
2 1.05417 0.0371758 1.74884 
2 -3.56617 -3.08596 -0.342117 
