ITEM: TIMESTEP
20
ITEM: NUMBER OF ATOMS
500
ITEM: BOX BOUNDS xy xz yz pp pp pp
-3.7345 3.74944 0.014938
-3.7345 3.7345 0
-3.7345 3.7345 0
ITEM: ATOMS type xu yu zu 
1 -2.86316 -2.09552 -2.57408 
1 -3.05165 -3.10131 -2.90073 
1 -2.4574 -2.36381 -3.57153 
1 -2.16002 -3.36651 -3.46746 
1 -1.83831 -2.52901 -2.74132 
1 -0.91442 -2.70547 -2.18294 
2 -1.72974 -3.04756 -2.05629 
1 -0.775699 -2.3583 -3.16641 
1 0.275584 -2.2407 -3.35776 
1 -0.290916 -3.2873 -3.38718 
2 -0.17257 -2.7371 -2.6617 
1 0.618913 -3.06003 -2.77061 
1 -3.25682 -0.411178 -3.31023 
1 -3.08995 -1.01025 -2.41885 
1 -2.73331 -1.37529 -3.37085 
1 -2.35721 -0.504625 -1.87294 
1 -2.15911 -0.573703 -2.98356 
1 -2.0775 -1.45418 -2.38089 
1 -1.03646 -1.61854 -2.4622 
1 -1.64016 -1.68559 -3.3913 
2 -1.28943 -0.936523 -3.02995 
1 -1.40506 -0.660751 -2.1977 
1 -0.0321783 -1.89812 -2.39029 
1 0.332052 -0.829457 -3.35253 
2 0.570711 -1.51849 -2.90791 
1 -0.484897 -0.642424 -2.6952 
1 0.423254 -0.946495 -2.2288 
1 -0.598999 -1.36903 -3.47341 
1 -2.6402 -2.8436 -1.87984 
1 -3.44578 -2.78438 -1.17111 
1 -2.71369 -3.3323 -0.362636 
1 -2.49701 -2.36079 -0.866613 
1 -3.37008 -2.2298 -0.185766 
2 -3.55298 -3.09155 -0.355128 
1 -1.62136 -3.34924 -0.216528 
1 -1.73718 -2.23398 -1.70181 
1 -1.90339 -3.23952 -1.22162 
1 -1.42219 -2.4116 -0.701275 
1 -0.755551 -3.07183 -1.19735 
1 -0.662158 -1.9929 -1.43422 
1 0.15078 -2.75165 -1.79755 
1 0.10039 -2.58588 -0.732236 
1 -0.453228 -3.35129 -0.161391 
1 0.636376 -3.48087 -0.360069 
2 0.665539 -3.10321 -1.16315 
1 -3.21338 -1.84413 -1.58733 
1 -3.58234 -1.13292 -0.832312 
1 -3.37946 -0.201554 -1.62323 
2 -3.03573 -0.999497 -1.5356 
1 -2.67191 -0.532566 -0.885925 
1 -2.70212 -1.41994 -0.309552 
2 -3.50305 -0.245645 -0.74029 
1 -2.23708 -1.39244 -1.29125 
2 -1.43873 -1.39655 -1.72188 
1 -1.61489 -0.330602 -1.14605 
2 -1.9668 -0.932056 -0.487274 
1 -1.25142 -1.29758 -0.886744 
2 -0.831213 -0.518837 -0.792664 
1 -0.597032 -1.87526 -0.301159 
1 -0.543709 -0.92625 -1.64103 
1 0.37016 -1.68267 -1.37223 
1 -0.11082 -0.997499 -0.689995 
2 0.340414 -0.704105 -1.38961 
2 -3.66463 -1.68299 -2.3617 
1 -2.05335 -0.0871327 -0.171883 
2 -3.65494 -0.294395 -2.48744 
1 -1.2531 -3.43512 -2.91482 
1 -3.57128 -3.54328 -2.02287 
1 -2.22886 -3.66625 -2.41858 
1 -0.355935 -0.185306 -0.0956859 
1 0.501692 -1.70959 -0.254513 
1 -0.300129 -3.56204 -2.30673 
1 0.801754 -0.0661449 -2.75413 
1 0.937723 -3.56038 -1.89328 
1 -3.6557 -1.88824 -3.20534 
1 1.06482 -0.21768 -1.69506 
1 1.08533 -1.59821 -3.63557 
1 1.08525 -2.10794 -2.55626 
1 1.02648 -0.908447 -0.85131 
1 1.16347 -2.48073 -1.55024 
2 1.16987 -1.76879 -0.978453 
1 1.16832 -2.49713 -0.494104 
1 1.31824 -2.62562 -3.48148 
1 1.34853 -1.04898 -2.79208 
1 1.3029 -1.36492 -1.78449 
1 1.36714 -3.70231 -3.16187 
2 1.39213 -2.90504 -2.32764 
1 1.47362 -3.37654 -0.979007 
1 1.53251 -0.279769 -3.53775 
1 1.54099 -1.53644 -0.17371 
1 0.429884 -0.014951 -0.792857 
1 -1.26523 -0.00642682 -3.07734 
1 -1.72191 -1.69478 -0.00528867 
1 1.84841 -0.178986 -2.46749 
1 -3.44137 -3.19964 1.62403 
1 -3.38506 -3.01389 0.524003 
1 -2.64095 -2.6501 1.25727 
2 -2.59809 -3.36752 0.599703 
1 -2.32954 -2.54939 0.211239 
1 -1.79364 -3.18497 0.894609 
1 -1.09091 -2.59914 0.362649 
1 -0.980179 -2.78274 1.54121 
1 -1.74282 -2.06765 1.03497 
1 -0.0430826 -2.46498 0.380449 
1 0.148691 -2.64209 1.5722 
1 -0.326883 -3.35948 0.949206 
2 0.546612 -3.48192 1.49951 
1 0.732091 -3.0981 0.69599 
1 0.51404 -1.67505 0.822809 
2 0.82464 -2.32201 0.286319 
1 -2.78852 -1.71034 0.718004 
2 -2.91768 -0.771757 0.924191 
1 -3.38629 -1.24295 1.50196 
1 -2.27776 -1.20835 1.53462 
1 -2.89833 -0.338677 1.73429 
1 -2.17745 -0.892666 0.481961 
2 -1.00847 -1.72158 0.477362 
1 -1.75917 -0.259538 1.61297 
1 -1.29316 -1.08862 1.02453 
2 -1.61807 -0.217822 0.649457 
1 -0.539171 -1.88053 1.19274 
1 -0.751641 -0.171389 0.915752 
1 -0.337099 -1.1408 0.432039 
1 0.116766 -1.14659 1.65357 
2 0.0660418 -0.57504 0.955809 
1 0.607527 -0.703222 0.133076 
1 -3.71014 -0.362724 0.955548 
1 0.0878542 -0.0496424 1.6913 
1 -3.72499 -2.10116 0.987274 
1 -3.0965 -0.438812 0.074644 
1 -3.7267 -1.28285 0.263249 
1 1.08776 -1.71707 1.72035 
1 0.922739 -0.659719 1.14679 
2 1.21923 -1.2321 0.559776 
1 1.20281 -2.82048 1.65213 
1 1.51959 -2.10635 0.763726 
1 -1.23248 -0.727203 0.00205714 
1 1.65142 -3.182 0.124772 
1 1.68768 -0.523593 0.202185 
1 1.81434 -0.184031 1.64332 
1 -3.5466 1.48997 -2.3541 
1 -3.37081 0.731069 -3.12753 
2 -2.75536 1.06425 -2.48486 
1 -2.83729 0.148916 -2.48274 
1 -2.1281 0.712951 -3.01503 
1 -2.59612 1.74265 -1.9038 
1 -2.94982 0.430548 -0.613368 
1 -3.00582 0.810318 -1.63079 
1 -2.62457 1.45425 -0.702088 
2 -2.41252 0.20278 -1.34254 
1 -3.53601 1.72717 -1.28552 
1 -3.61574 1.18264 -0.261258 
1 -2.69015 1.35628 -3.64662 
1 -1.99085 0.828235 -1.96048 
1 -1.95971 1.77005 -2.74062 
2 -1.8953 0.0688592 -2.41526 
1 -1.81237 0.696413 -0.892376 
1 -1.70942 1.69091 -1.30774 
1 -1.5587 1.48949 -0.194684 
1 -1.16954 1.045 -2.76687 
2 -1.14552 1.13818 -1.73417 
1 -1.0639 0.289659 -2.01246 
1 -0.728456 1.45654 -0.960381 
1 -0.727745 0.337737 -0.998861 
1 -0.325055 1.06207 -2.11199 
1 -0.261558 1.44083 -3.13224 
2 -2.5474 0.0728448 -3.40605 
1 -0.189711 0.845456 -0.193 
1 -0.182227 0.363137 -2.9185 
1 0.179397 0.936355 -1.19775 
1 0.265167 1.79414 -0.494666 
1 0.739109 1.78824 -2.47054 
1 0.753364 0.772677 -2.0921 
1 0.827181 0.968387 -3.17321 
1 0.925228 0.908215 -0.416539 
2 0.994122 0.573047 -1.24651 
2 0.952514 0.0995309 -0.0319359 
1 1.04542 1.53877 -1.39374 
2 1.43037 0.562455 -2.61146 
1 1.51634 0.0472087 -0.725622 
1 1.5166 1.7177 -3.62287 
1 -0.004624 0.0102883 -1.83759 
1 1.73449 1.37098 -2.51878 
1 1.78324 0.677518 -1.66872 
2 -3.2444 0.36878 1.38252 
2 -2.62502 1.02384 0.956143 
1 -3.37875 1.24701 1.38291 
1 -2.96906 1.67122 0.447963 
1 -3.33019 0.560956 0.529411 
1 -2.45391 0.66355 1.72182 
1 -2.48042 1.7445 1.74344 
1 -2.3191 0.860895 0.160184 
1 -1.93789 1.62783 0.83327 
1 -1.59901 0.604719 1.00082 
1 -1.52975 1.26647 1.80996 
2 -1.1755 1.25457 0.575487 
1 -0.888014 0.402857 1.83751 
1 -2.48831 0.0417302 0.847736 
1 -0.583157 1.7823 0.180885 
1 -1.1812 0.489109 0.0440992 
1 -0.470853 0.893322 0.970893 
2 -0.0777739 0.836602 1.84305 
1 0.138224 1.66697 1.45093 
1 0.277952 0.214073 0.626964 
1 0.468295 1.27381 0.500166 
1 0.740132 0.810821 1.44563 
2 0.974731 0.0278166 1.75374 
1 1.29505 0.237417 0.774209 
2 1.33323 1.12556 0.591968 
1 1.84377 0.911042 1.30931 
1 1.86829 0.690584 0.0322275 
1 1.88998 0.696569 -3.3627 
2 1.90585 1.57724 -1.66458 
2 3.65824 -2.00136 -0.91686 
1 3.1524 -2.76338 -3.15517 
2 2.77754 -2.6932 -2.28816 
2 2.5302 -3.13872 -0.0354139 
2 3.1086 -0.773506 -3.71603 
1 2.5073 -3.66417 -0.741853 
1 2.41349 -0.843288 -3.1238 
1 3.42805 -0.992056 -2.89833 
1 2.00391 -1.86617 -3.14335 
1 2.89765 -1.67455 -3.71062 
1 2.04442 -3.29709 -1.87074 
1 3.15665 -2.6671 -0.511302 
1 2.05221 -1.58676 -1.09353 
1 2.05743 -2.22042 -2.04443 
1 3.48837 -1.09291 -1.8162 
1 2.11134 -2.91613 -2.85935 
1 3.16457 -0.341062 -1.12248 
1 2.19309 -2.61956 -1.00534 
2 3.24789 -0.790368 -0.344348 
2 2.79167 -1.13187 -1.25726 
1 3.00456 -1.99656 -1.51274 
1 2.92107 -3.55764 -2.46049 
1 2.1565 -0.332413 -1.47709 
1 3.02567 -3.06784 -1.52057 
1 2.5148 -3.69317 -3.4455 
1 2.91582 -0.315337 -2.24126 
1 2.97101 -1.60763 -0.490929 
1 2.93209 -1.87322 -2.59609 
1 2.337 -1.18597 -2.07214 
1 3.67809 -2.53948 -2.22354 
1 2.37317 -0.735295 -0.538922 
1 3.62145 -3.73048 -0.958508 
1 2.27501 -2.28267 0.00558795 
2 3.34132 -1.16103 1.05275 
2 3.30601 -2.06138 0.173786 
1 3.31201 -3.59819 0.0152945 
1 3.2493 -3.68987 1.10153 
1 2.81432 -0.581877 1.47427 
1 2.75107 -1.75045 0.802651 
1 2.13767 -2.97425 1.07459 
1 3.08024 -2.58413 1.68307 
1 2.83689 -0.724344 0.42465 
1 2.13568 -2.00652 1.64505 
1 3.03496 -2.77304 0.590161 
1 1.93383 -1.10778 1.06504 
2 2.34092 -1.37098 0.113689 
2 2.49674 0.00733579 -0.0678873 
2 2.29411 1.47583 -3.28966 
1 2.96679 0.93422 -3.48257 
1 2.92133 1.63084 -2.68858 
1 3.54835 0.522062 -2.20476 
1 3.41209 0.0373429 -0.110171 
1 2.7662 1.25849 -1.64462 
2 2.80187 0.347408 -1.65844 
1 3.5317 0.651164 -1.12096 
1 2.51731 0.484496 -0.821722 
1 2.99615 1.6872 -0.6574 
1 2.52394 0.647214 -2.49609 
2 2.39898 0.0319136 -3.11751 
1 1.93458 1.41039 -0.777841 
1 3.72301 1.66617 -3.4676 
1 3.27136 0.00121107 -3.1928 
1 3.38169 0.3395 1.66573 
2 3.64666 1.26786 0.618353 
1 2.89531 0.908347 0.125298 
1 2.90693 1.10853 1.16527 
1 2.10811 1.60864 0.567736 
1 2.41852 0.168143 0.788378 
2 3.28345 0.370004 0.752728 
2 2.50533 0.367757 1.62692 
1 -2.95707 2.16029 -2.90121 
1 -2.67974 3.18742 -3.18228 
1 -2.54153 2.82341 -2.09263 
2 -3.28027 2.26918 -2.01757 
1 -3.07685 3.15707 -0.393415 
1 -3.51258 2.83688 -1.38261 
1 -2.579 2.4375 -1.09959 
1 -3.54182 2.22853 -0.298976 
1 -2.02103 3.26169 -0.754157 
1 -3.52521 2.98444 -2.47695 
1 -2.20159 2.30639 -3.65738 
1 -2.26923 2.34008 -0.0851301 
1 -3.64362 2.73048 -3.52229 
1 -2.8114 3.66807 -1.34369 
2 -2.03345 3.43088 -1.63857 
2 -1.43425 3.10788 -0.136367 
1 -1.62429 3.20077 -3.60725 
1 -1.56251 2.92224 -2.58758 
1 -1.55589 2.7071 -1.55639 
1 -1.23727 2.39299 -0.598369 
1 -1.0814 2.20222 -3.2303 
1 -0.947172 3.41316 -0.836054 
1 -1.00901 1.93439 -2.16395 
2 -0.816196 2.23856 -1.36793 
1 -0.611813 3.19448 -3.12795 
1 -0.534317 2.91868 -1.90864 
2 -0.282431 2.37398 -3.59386 
1 -0.176952 2.67787 -0.944945 
1 -0.0889093 2.38959 -2.70172 
1 0.0162645 1.94427 -1.65935 
2 -0.0129509 3.39688 -0.437184 
1 0.0893449 3.70024 -1.25963 
1 0.442676 3.34069 -2.78065 
1 0.511944 2.02113 -3.54467 
1 0.610604 2.87206 -1.76083 
2 0.622224 2.30224 -1.10247 
1 0.678188 2.84032 -0.353653 
2 0.932928 3.37769 -1.04334 
1 -1.2391 3.70745 -1.87812 
1 1.1818 2.66998 -3.06246 
2 1.22206 3.17161 -2.3219 
1 1.24002 1.85973 -0.00783191 
1 1.46611 2.40143 -0.914192 
1 1.54698 2.33269 -2.02519 
1 1.64363 3.29184 -0.33478 
1 1.706 3.22533 -1.51633 
1 -2.46548 2.58215 0.99646 
1 -3.46762 3.2039 1.6898 
1 -3.22517 3.40666 0.653119 
2 -3.02205 2.60334 0.311321 
1 -3.52979 2.36416 1.00594 
1 -2.45409 3.63559 1.40252 
1 -2.19694 3.36753 0.29645 
2 -1.7792 3.16239 1.03024 
1 -1.58121 2.54603 1.65769 
1 -1.41281 2.52021 0.533225 
1 -1.24687 3.62425 1.5285 
1 -1.10888 3.57069 0.504975 
1 -0.878852 1.86733 1.21673 
1 -0.518368 2.92148 1.10009 
1 -0.515174 2.84805 0.0266404 
1 0.273684 3.41417 0.445234 
1 0.30593 2.33567 0.572043 
1 0.560535 3.06886 1.40436 
2 1.11251 3.61062 0.293809 
1 1.16428 1.84573 1.09676 
1 1.33496 2.7821 0.559327 
1 1.43147 3.69974 1.11293 
1 1.55761 2.77946 1.64303 
1 2.78672 2.10689 -3.72241 
1 2.12139 2.25958 -2.91065 
1 2.97219 2.86956 -2.8969 
2 2.25263 2.96217 -0.878941 
1 2.40756 2.24732 -1.35377 
1 2.25816 2.40516 -0.155927 
1 3.10838 2.82997 -0.672062 
1 3.27639 2.29193 -1.96544 
1 2.80869 3.23866 -1.63913 
2 2.45496 2.58381 -2.16465 
2 3.59868 2.22505 -2.80048 
1 2.06193 3.28233 -2.52958 
1 3.63697 3.72507 -3.23111 
1 3.11955 1.91189 0.413174 
1 2.3919 3.4806 1.62297 
2 3.19963 2.91588 1.30834 
1 3.2826 2.92642 0.405653 
1 2.0455 1.8472 1.69812 
1 2.38247 2.60812 0.944343 
1 2.37396 3.56788 0.45373 
1 3.0776 2.07358 1.55306 
1 -0.833902 -0.743946 1.91917 
1 -3.39229 -2.14995 2.04079 
2 -2.73804 -2.90717 2.12192 
1 -3.42075 -3.00798 2.66244 
1 -2.31563 -2.1137 2.13905 
1 -2.34057 -2.89949 2.98605 
1 -2.91618 -1.97314 3.03467 
1 -1.8869 -3.13222 2.01291 
1 -1.07554 -2.6639 2.57617 
2 -0.975983 -3.46648 2.253 
2 -0.984083 -2.01739 3.50214 
1 -1.74162 -2.00722 3.04565 
1 0.544501 -3.33067 2.41115 
1 -0.28598 -2.51977 3.24735 
2 -0.203307 -2.83508 2.39207 
1 0.605358 -2.32102 2.49833 
1 -0.426502 -3.56284 2.97127 
2 0.782069 -2.27684 3.35188 
1 -3.06623 -3.59375 3.51839 
1 -2.91973 -1.10863 2.46492 
1 -2.58652 -0.610804 3.38175 
2 -3.13664 -0.299256 2.73968 
1 -3.58958 -1.22307 3.40813 
2 -2.19678 -1.3813 3.40222 
1 -1.22182 -0.167682 2.72933 
1 -1.32125 -1.74185 1.97321 
1 -1.54326 -0.75012 3.6016 
1 -1.87132 -1.03533 2.57979 
1 -0.883272 -1.30654 2.94997 
1 -0.318344 -1.91604 2.27989 
1 -0.51893 -0.358537 3.59047 
1 0.184116 -1.57538 3.23366 
1 -0.0348622 -0.684153 2.63454 
2 0.489273 -1.43856 2.41121 
1 0.555803 -3.14948 3.47332 
1 -1.5338 -3.63349 2.92208 
1 -1.3259 -2.85958 3.5974 
1 -2.30281 -0.0476623 2.54945 
1 0.86738 -0.751524 3.22069 
1 1.01666 -0.762448 2.17453 
1 1.3001 -1.62712 2.79125 
1 1.47004 -2.79764 2.95616 
1 -3.46354 -2.6578 3.64701 
2 1.55212 -2.27377 2.25789 
2 -0.977511 -3.71239 3.67534 
1 1.69127 -0.233923 2.83169 
2 1.76044 -2.0412 3.44316 
2 1.79385 -3.2965 3.64898 
1 -2.96332 0.36829 3.36734 
1 -3.43673 1.25632 3.08291 
1 -3.30365 0.473718 2.34863 
2 -3.07961 1.33722 2.25758 
1 -2.33109 0.996831 2.72888 
1 -1.86968 0.29264 3.5022 
1 -1.63955 1.38935 3.69949 
2 -1.7078 0.460933 2.16353 
1 -1.2712 0.897485 2.79415 
1 -0.783741 0.688975 3.71241 
1 -0.707063 1.73789 3.35292 
1 -0.524905 1.49064 2.28531 
1 -0.303969 0.452927 2.72416 
1 0.182182 1.14067 3.40474 
1 0.458674 0.145126 3.67187 
1 0.549058 1.19936 2.41864 
1 0.672299 0.134365 2.6061 
2 0.864711 1.65172 3.16407 
1 1.2468 0.814905 3.26252 
2 1.26798 1.39823 1.85392 
1 1.49506 0.637836 2.24651 
1 1.5862 1.66482 2.6421 
1 3.37647 -2.15499 2.88905 
1 2.00188 -1.14091 3.40693 
1 3.63591 -0.560545 2.2156 
1 2.53547 -0.0994457 3.48947 
1 3.60739 -0.222222 3.24613 
1 2.0798 -1.0735 2.20611 
1 2.64292 -0.0896671 2.38772 
1 3.11802 -3.48031 2.23927 
1 2.16556 -2.94053 2.14298 
2 2.7689 -2.81118 2.76368 
1 2.27622 -3.60636 2.96099 
1 2.31416 -2.00991 2.72137 
2 3.72634 -1.41597 2.52307 
1 2.38999 -2.65488 3.56728 
1 2.94762 -1.04743 2.88192 
1 3.10623 -1.53067 1.89013 
1 3.24601 -3.31504 3.31732 
1 3.11617 0.659285 2.9524 
2 3.18155 1.49679 3.24047 
1 3.45753 1.32273 2.21388 
2 3.68101 0.586175 3.60379 
2 2.17293 0.499248 2.88348 
1 2.29282 1.26624 3.282 
1 2.45915 1.01543 2.20729 
1 -3.42302 2.17695 2.05254 
1 -2.66359 1.96882 2.82056 
1 -2.53811 2.7658 2.06738 
1 -2.86595 2.89092 3.23715 
1 -3.62094 3.398 2.75609 
2 -2.2588 3.54733 3.31066 
1 -2.62219 3.71026 2.48779 
2 -3.0891 2.11391 3.60758 
1 -1.88062 2.85241 2.89245 
2 -1.85077 3.3892 2.14504 
1 -1.55368 1.90833 2.63767 
2 -1.41868 2.28239 3.42552 
1 -1.00035 3.0891 2.36817 
1 -0.766909 2.86718 3.34628 
2 -0.740927 2.28501 2.66297 
1 -0.190209 2.51993 2.00604 
2 -0.184748 3.07917 2.72399 
1 -0.212989 3.65224 1.91362 
1 0.135469 2.21702 2.95437 
1 0.26281 3.13197 3.58029 
1 0.644605 3.10432 2.48863 
1 0.839147 2.15574 2.09253 
1 1.16415 2.49055 3.19443 
1 1.28398 3.57014 3.24184 
1 1.49946 3.71223 2.19248 
2 2.40186 2.61414 1.84416 
1 3.66169 2.25013 3.02884 
1 2.68711 1.99845 2.61839 
1 3.11347 2.89969 2.2209 
1 2.0308 2.84139 2.62804 
2 2.03625 2.15091 3.24338 
1 2.97766 3.07287 3.30511 
1 1.99806 2.90964 3.7296 
