ITEM: TIMESTEP
959
ITEM: NUMBER OF ATOMS
500
ITEM: BOX BOUNDS xy xz yz pp pp pp
-3.7345 3.88388 0.14938
-3.7345 3.7345 0
-3.7345 3.7345 0
ITEM: ATOMS type xu yu zu 
1 0.679259 -2.29902 2.4417 
1 -2.66238 -1.41419 -0.322955 
1 2.08375 -1.89025 -3.18178 
1 -0.29024 -0.198248 -0.0575203 
1 1.12931 -2.51158 -0.533234 
1 -1.54517 -3.6059 2.96808 
1 2.16528 3.30253 -2.54162 
1 -1.13668 -0.136352 2.75547 
1 2.24421 -0.303731 -1.48835 
1 -3.36029 -2.23288 1.92556 
1 1.26073 1.846 1.10138 
1 -1.71275 -2.0347 0.993578 
1 -1.16248 0.00916477 -3.0621 
1 2.09946 2.90302 3.73494 
1 -2.07638 -0.50193 -2.99732 
1 1.01322 0.901662 -0.406002 
1 1.07716 -0.747476 2.16754 
1 -1.19055 0.916634 2.81441 
1 -3.3325 -2.22763 -0.195116 
1 -2.75174 -1.70664 0.70988 
1 -3.45088 1.48754 -2.34195 
1 -2.16974 -1.3865 -1.29578 
1 2.14452 1.8477 1.7008 
1 -2.34312 2.59252 0.999713 
1 -2.54793 -2.31608 -3.62183 
1 1.4622 -3.38709 -0.979706 
1 -1.81575 -1.886 3.06877 
1 -0.636946 1.45183 -0.953403 
1 0.926915 0.969313 -3.16737 
1 -2.7613 0.165555 -2.46815 
1 3.07326 -2.74286 0.557257 
1 -2.60474 -2.64952 1.25584 
1 -1.14234 -0.803975 0.0221902 
1 3.69169 -0.268687 3.24227 
1 3.35937 -0.0097485 -3.20843 
1 -2.19234 0.834863 0.174639 
1 -2.84961 0.443242 -0.588035 
1 -1.76106 -0.975649 2.50423 
1 -2.22416 -0.0290865 2.57136 
1 2.87377 2.07874 -3.71181 
1 3.01647 -1.96941 -1.49063 
1 -0.455249 -3.56008 2.98035 
1 0.0435758 -1.8913 -2.40373 
1 0.502173 -3.30197 2.48577 
1 0.898489 -0.0692915 -2.76345 
1 3.17846 2.10846 1.5562 
1 2.43715 -0.670152 -0.535821 
1 -2.39139 1.75044 1.77192 
1 2.8889 -0.603753 1.46682 
1 0.66545 -0.714873 0.129342 
1 -1.06145 1.0597 -2.75273 
1 -1.45141 2.70581 -1.56386 
1 -3.024 -0.976105 -2.38121 
1 -0.680704 -0.16419 0.937861 
1 2.50968 -0.875065 -3.12812 
1 -1.77111 2.88054 2.88456 
1 0.932688 -3.57021 -1.90141 
1 2.18863 -2.96433 2.11846 
1 0.937184 2.16497 2.09959 
1 -0.81996 -1.32644 2.91001 
1 -0.405594 2.82211 0.0178579 
1 0.229671 2.22002 2.9611 
1 1.86293 0.689729 -1.66398 
1 -3.33603 2.16207 2.08251 
1 0.575423 -3.16333 3.53443 
1 -3.1172 -3.56627 3.49591 
1 -1.61319 1.69581 -1.30296 
1 -3.36032 -3.29272 1.59315 
1 -0.23644 -2.52154 3.21209 
1 -0.577111 -1.83857 -0.313266 
1 -3.44102 2.97956 -2.44279 
1 -0.617207 1.74334 3.34899 
1 1.18195 -1.67775 1.69826 
1 1.44002 -1.07547 -2.80166 
1 0.606663 -3.4663 -0.357504 
1 1.34601 -3.70333 -3.19681 
1 -1.48168 2.58211 1.69563 
1 2.50829 -3.70683 -3.4457 
1 1.64528 2.32809 -2.0189 
1 -3.11076 -2.99836 -2.92447 
1 0.0420779 -0.676039 2.61922 
1 -1.29907 -3.43059 -2.94632 
1 1.97965 0.674029 -3.36255 
1 -0.975132 2.20024 -3.22917 
1 3.35909 2.27945 -1.95837 
1 -2.81231 -0.354928 1.76044 
1 -0.439595 1.50477 2.28831 
1 2.49161 -3.63279 -0.729062 
1 1.39546 0.229689 0.77761 
1 -3.16021 -0.401623 -3.31675 
1 -0.417663 -0.344542 3.58338 
1 -3.02585 -2.08837 2.89495 
1 2.20507 -2.02924 1.62818 
1 -0.995755 3.55496 0.481373 
1 0.751496 0.146738 2.60756 
1 -2.32827 -2.8774 2.97717 
1 2.73104 -0.121192 2.39084 
1 -0.474813 1.75989 0.219385 
1 -1.90087 -3.25214 -1.24881 
1 -2.02098 0.740636 -2.9695 
1 3.12719 -2.62159 1.6447 
1 0.505871 -1.72206 -0.229112 
1 -3.46801 -1.26656 3.41722 
1 1.33675 0.817924 3.26411 
1 -3.42411 2.23346 -0.298014 
1 3.01529 1.13075 1.17417 
1 0.83031 0.819758 1.44211 
1 -0.0111161 -2.50203 0.302503 
1 0.252377 -1.57813 3.1925 
1 2.22825 2.25831 -2.89291 
1 3.06799 0.93195 -3.4858 
1 3.70938 -2.49755 -2.18246 
1 2.15615 -1.09348 2.20294 
1 0.844747 0.763937 -2.08748 
1 -1.46828 1.51838 -0.158159 
1 3.72072 -0.585505 2.21655 
1 -2.50748 1.73852 -1.88151 
1 0.321347 -2.21838 -3.38407 
1 -2.71395 3.64188 -1.34624 
1 1.62616 -0.308289 -3.54559 
1 -2.46357 -0.635786 3.39023 
1 2.99182 -1.84149 -2.59392 
1 2.30065 -2.26965 -0.00870712 
1 2.27177 -3.6422 2.93048 
1 1.6201 1.71794 -3.61554 
1 2.16584 -2.5913 -1.0131 
1 1.82759 1.36987 -2.51814 
1 -2.06767 3.39384 0.301375 
1 -1.08182 0.516813 0.0564799 
1 3.05074 -1.10521 2.86647 
1 2.77903 1.9868 2.63267 
1 -0.247996 -1.17362 0.464893 
1 -1.63464 -3.32606 -0.228439 
1 -0.0902033 0.353361 -2.90889 
1 -0.871924 3.13549 2.38649 
1 -1.12606 -2.60521 2.65462 
1 0.0648064 -2.57899 -0.775879 
1 -1.71479 0.718624 -0.850743 
1 1.96366 -1.1222 1.0817 
1 -0.797126 1.87164 1.25076 
1 -2.48581 3.72787 2.48611 
1 2.34113 2.39772 -0.160948 
1 0.501229 -0.0205528 -0.780149 
1 -2.44995 -2.35837 -0.870019 
1 -2.27996 -3.6702 -2.4253 
1 -3.43579 3.14132 1.65458 
1 2.12421 -2.92614 -2.85073 
1 2.2012 1.60898 0.569302 
1 1.59105 3.69864 1.08514 
1 -2.83459 1.64566 0.415112 
1 1.62493 -3.16519 0.131299 
1 -3.38844 2.26868 1.02109 
1 2.62221 -0.129707 3.48628 
1 -0.772813 -0.731936 1.94564 
1 2.99867 -1.56361 -0.479915 
1 0.238778 3.69205 -1.25727 
1 -3.00114 -0.432885 0.0836952 
1 -1.87516 -2.53301 -2.79657 
1 -0.677197 2.87708 3.36699 
1 3.21072 -3.63811 1.115 
1 2.99545 -0.31982 -2.26308 
1 -0.220107 1.06078 -2.10771 
1 -2.81066 -1.14454 2.49495 
1 -3.5395 2.73153 -3.50273 
1 2.38136 -1.17239 -2.06241 
1 3.76255 2.23076 3.05783 
1 1.49061 -2.81314 2.93333 
1 2.94319 3.23905 -1.60345 
1 3.24225 -3.39707 3.29894 
1 -2.49864 2.44939 -1.08887 
1 3.21317 2.87776 -0.580343 
1 -0.0859004 2.54579 2.01567 
1 3.53026 -1.093 -1.81153 
1 2.1025 2.8279 2.62657 
1 -0.426053 -0.96947 -1.67896 
1 -2.25847 3.62867 1.4072 
1 -2.23971 -3.34469 -3.45745 
1 1.32931 1.86045 -0.00961372 
1 -3.35322 1.23168 3.0946 
1 1.55228 2.41932 -0.915469 
1 0.229798 1.68173 1.45857 
1 -2.66541 -2.86579 -1.86864 
1 0.509118 -0.939249 -2.24817 
1 -2.98735 3.18262 -0.362971 
1 3.07307 2.86745 -2.89262 
1 1.18771 -2.50164 -1.58644 
1 -2.17589 2.37562 -0.0806283 
1 -2.8851 0.336695 3.35804 
1 2.6012 0.638332 -2.49659 
1 2.52314 0.183907 0.801729 
1 2.10333 -2.20776 -2.04871 
1 -3.30759 -0.204685 -1.62493 
1 1.40845 3.56508 3.21117 
1 0.117082 1.94194 -1.6552 
1 -2.46848 2.7782 2.07558 
1 -0.277813 -1.95227 2.23828 
1 -1.11237 3.6324 1.52179 
1 -1.47142 1.92236 2.64074 
1 0.146681 -1.15817 1.61178 
1 -2.25134 1.00674 2.74253 
1 0.170807 -0.045377 1.6875 
1 -0.499805 -3.34104 -0.214428 
1 -0.525498 -1.9544 1.13687 
1 -0.744403 -3.11265 -1.28896 
1 0.274776 0.937677 -1.19157 
1 -3.52941 -1.10095 -0.834393 
1 3.17748 -1.55789 1.85155 
1 -3.62632 -0.371026 0.95828 
1 -1.14654 3.68539 -1.93152 
1 0.973724 -0.65293 1.142 
1 3.08792 3.03787 3.32637 
1 -2.52489 1.46736 -0.676514 
1 -0.889446 1.94847 -2.16642 
1 -3.44155 1.71917 -1.27369 
1 1.15044 -0.226359 -1.6933 
1 0.724314 2.86002 -1.75728 
1 2.89969 -0.715536 0.417508 
1 2.8514 1.26112 -1.64386 
1 -2.45165 2.81755 -2.08295 
1 -1.6902 -1.72882 -0.0812357 
1 -1.29998 2.48893 0.521989 
1 3.82502 1.66891 -3.45706 
1 -2.58276 1.97807 2.84692 
1 -2.0969 -0.928581 0.473424 
1 -2.31819 -2.55486 0.208741 
1 0.557952 3.35245 -2.77438 
1 1.28509 2.66466 -3.05622 
1 1.35672 -1.61199 2.77632 
1 0.553203 0.152349 3.67834 
1 -0.942012 -2.69307 -2.24512 
1 2.37974 1.24517 3.28463 
1 3.54167 1.31372 2.21549 
1 2.49471 3.48077 1.63968 
1 -0.0534178 -0.978119 -0.699196 
1 -0.411838 -0.662637 -2.71844 
1 -2.37051 0.657343 1.73375 
1 1.8448 3.2206 -1.52399 
1 -1.50167 2.89528 -2.60287 
1 0.406954 -0.83505 -3.36139 
1 2.09967 -1.17643 3.3966 
1 -0.406444 -3.30227 0.901988 
1 1.89386 -0.195027 1.64718 
1 0.774445 2.85081 -0.342242 
1 0.410935 2.35015 0.582782 
1 -2.64573 -1.33881 -3.29821 
1 3.16553 -2.76108 -3.12205 
1 3.36975 -2.1855 2.74763 
1 2.46737 2.61295 0.941828 
1 -3.22911 0.456826 2.35011 
1 1.74818 3.29711 -0.323974 
1 -3.2711 1.22523 1.40026 
1 -2.21191 -1.20506 1.51873 
1 -1.53856 1.39271 3.72852 
1 -1.84869 1.7925 -2.69998 
1 3.62695 0.525719 -2.20532 
1 2.02997 1.42777 -0.767782 
1 -0.300908 -3.31465 -3.37913 
1 3.01393 -1.74259 -3.73078 
1 -2.59058 1.34446 -3.64689 
1 -0.528357 3.19134 -3.09859 
1 0.376388 0.225912 0.623562 
1 -1.42752 -0.74865 3.60459 
1 1.15724 -2.12725 -2.58744 
1 -3.47926 3.34335 2.72117 
1 -3.28431 0.727444 -3.1352 
1 2.50027 2.26356 -1.3371 
1 -1.30727 -0.657325 -2.17063 
1 1.25311 2.49323 3.20024 
1 1.6463 2.78779 1.64108 
1 3.45495 0.326355 1.66602 
1 1.24927 -2.78669 1.61194 
1 0.277197 1.14759 3.4075 
1 -2.40104 0.0162472 0.8627 
1 3.15873 -2.64934 -0.520802 
1 -3.53041 1.18744 -0.253006 
1 -1.44557 -2.77922 3.64095 
1 -1.27769 -1.75132 1.94599 
1 -3.22756 0.56928 0.538571 
1 0.347486 1.79723 -0.484677 
1 -2.78603 -2.05447 -2.49898 
1 1.58246 0.633739 2.24744 
1 -1.59392 -1.68801 -3.38817 
1 -0.685872 0.697473 3.72211 
1 0.555626 1.28715 0.505009 
1 0.0275362 2.39683 -2.70705 
1 -1.73936 -3.14517 0.899904 
1 -0.960742 -1.61759 -2.49803 
1 1.56889 -2.13758 0.763299 
1 3.61811 0.660701 -1.11385 
1 2.54576 1.00965 2.21693 
1 3.17556 2.89669 2.26412 
1 2.42197 -2.69167 3.56059 
1 3.24237 -0.319743 -1.12428 
1 3.0182 -3.03878 -1.52455 
1 1.36141 -2.63193 -3.50284 
1 -0.0995899 3.73395 1.89763 
1 0.706083 -3.12899 0.730977 
1 -3.06968 3.42696 0.692153 
1 -2.58335 -0.515223 -0.876762 
1 -2.09219 2.3071 -3.62468 
1 -1.87526 -3.12442 2.02481 
1 -3.572 -3.51757 -2.04677 
1 3.77493 3.7291 -3.20382 
1 3.02231 1.61382 -2.68503 
1 0.412503 -1.69167 -1.36664 
1 1.35036 -1.39674 -1.79513 
1 -0.374569 0.895424 0.992436 
1 0.363985 3.13236 3.59538 
1 -0.0844265 0.831353 -0.188663 
1 2.78096 -1.72025 0.767132 
1 -3.45135 2.82272 -1.34291 
1 -0.853318 3.40851 -0.855233 
1 0.616432 2.01822 -3.54044 
1 -3.3074 -1.25858 1.5223 
1 0.837011 1.78205 -2.46088 
1 1.57512 3.74689 2.16093 
1 -1.92828 -0.111291 -0.15672 
1 3.21438 1.93033 0.404555 
1 2.50618 3.55141 0.423426 
1 -2.91833 0.804055 -1.6106 
1 0.339952 3.43667 0.438014 
1 0.549679 -1.79185 0.858911 
1 -0.545483 -1.36866 -3.51763 
1 -0.635485 -2.01092 -1.48287 
1 -1.54589 3.22492 -3.60401 
1 1.14155 1.5382 -1.38597 
1 3.09612 1.70173 -0.659322 
1 1.14817 -1.60427 -3.65555 
1 -2.7398 2.90549 3.27761 
1 1.6818 1.66549 2.64534 
1 0.640267 1.20934 2.41894 
1 -1.1806 -1.26329 -0.935501 
1 -0.417808 2.91279 1.09638 
1 -2.2804 -2.10245 2.12129 
1 1.95887 0.69024 0.0331628 
1 -0.968633 0.300473 -2.00074 
1 1.77231 -0.24864 2.82637 
1 -1.84963 1.62043 0.863685 
1 3.1275 -3.50825 2.21581 
1 0.934405 -0.74368 3.21514 
1 -1.13093 2.38756 -0.609617 
1 -0.155413 1.4419 -3.12578 
1 -3.35712 -3.00264 0.52316 
1 3.20811 0.631753 2.95079 
1 1.9296 -0.197464 -2.47934 
1 -2.72304 -3.31686 -0.389228 
1 1.09154 -0.923168 -0.854733 
1 -0.928096 -2.78957 1.65011 
1 -1.76342 -2.24559 -1.74961 
1 -1.99552 -1.40268 -2.40541 
1 2.90711 -3.56986 -2.44423 
1 -2.6046 3.19694 -3.16453 
1 3.51554 0.052208 -0.0981611 
1 -3.17189 -1.82692 -1.54132 
1 0.742833 3.12396 2.47809 
1 3.31676 -3.61185 0.0269788 
1 2.98314 0.920939 0.129565 
1 1.53708 -1.57258 -0.157535 
1 3.44858 2.93475 0.501759 
1 -1.51271 0.589825 1.01328 
1 -1.21872 -1.07661 1.05743 
1 -1.89861 0.824674 -1.91818 
1 -3.66385 -1.25827 0.234559 
1 1.59263 0.0359711 -0.717805 
1 0.167722 -2.75654 -1.82165 
1 -0.419926 2.92217 -1.91243 
1 2.33202 -2.04795 2.70938 
1 -1.5305 -0.286412 -1.1501 
1 -0.626029 0.334636 -0.985911 
1 2.03807 -3.29017 -1.8587 
1 2.08754 -1.53314 -1.06307 
1 0.172556 -2.70795 1.58113 
1 3.59823 -3.70797 -0.96271 
1 -2.85719 2.15865 -2.8809 
1 -1.44868 1.25967 1.82459 
1 3.53629 -1.00302 -2.92101 
1 1.93612 0.913374 1.31298 
1 0.080437 0.0035569 -1.83145 
1 -1.68669 -0.253967 1.63692 
1 -3.45165 -3.04827 2.61547 
1 -0.803971 0.406439 1.85351 
1 -0.219674 0.473636 2.73147 
1 -1.35396 -2.42982 -0.770431 
1 -0.727347 -2.35692 -3.22662 
1 -3.70507 -2.06181 0.94517 
1 2.19485 -3.00434 1.04839 
1 1.72829 -0.570914 0.208653 
1 0.66255 3.1074 1.39362 
1 -0.0691174 2.68699 -0.952215 
1 2.59736 0.49985 -0.826558 
1 -3.58097 -2.63738 3.58275 
1 0.619556 -3.05023 -2.78707 
1 -1.07248 -2.56172 0.318399 
1 -0.324889 -3.55347 -2.30076 
1 -1.80314 0.298361 3.54238 
1 -2.26864 -0.482539 -1.86377 
1 -3.43914 -2.76943 -1.15138 
1 1.43125 2.77916 0.558959 
1 -3.55074 -1.92913 -3.17225 
1 -1.91986 3.26745 -0.754725 
2 2.54301 2.61635 -2.1432 
2 3.77391 1.30844 0.629646 
2 1.36209 1.40042 1.85895 
2 -1.78888 0.0814852 -2.39017 
2 2.82911 -1.09076 -1.25378 
2 1.07399 3.35378 -1.03886 
2 1.42086 1.12264 0.595449 
2 0.126553 -0.55131 0.938439 
2 1.22838 -1.28529 0.59677 
2 -1.62156 0.465124 2.18654 
2 -1.33726 3.08574 -0.142183 
2 2.61744 0.0509576 -0.0569793 
2 -2.93355 2.61062 0.335305 
2 -1.03115 -3.43294 2.27492 
2 -1.32682 2.29088 3.4287 
2 -3.19302 2.26658 -1.98725 
2 -3.41634 -0.219581 -0.741559 
2 -3.16068 0.344295 1.38886 
2 3.26758 1.47544 3.23939 
2 -1.75227 -3.05356 -2.10224 
2 -0.654455 2.30645 2.66548 
2 3.35055 -2.03263 0.149709 
2 -2.52592 1.00445 0.958204 
2 -2.99191 1.32384 2.27388 
2 3.38909 0.391088 0.756849 
2 1.39123 -2.9471 -2.35512 
2 1.33726 3.15431 -2.31445 
2 3.6969 2.2215 -2.78578 
2 1.22578 -1.78572 -0.998194 
2 -1.24479 -0.931111 -3.0131 
2 2.52435 -3.13417 -0.00450271 
2 -1.72154 3.39969 2.13971 
2 1.19914 3.60835 0.295992 
2 1.07888 0.5615 -1.23868 
2 2.77917 -2.86163 2.75794 
2 0.961429 1.65402 3.16649 
2 3.42489 -1.17949 1.03735 
2 3.18809 -0.824159 -3.73427 
2 -0.169883 -2.72759 -2.66811 
2 -1.08799 1.25576 0.609646 
2 0.652097 -1.52047 -2.91716 
2 2.81284 -2.67702 -2.30228 
2 -1.5381 -0.257259 0.675003 
2 0.422583 -0.714821 -1.39927 
2 -1.00254 -1.6656 0.447541 
2 -0.705347 2.23965 -1.36834 
2 -2.83306 -0.787386 0.936546 
2 -1.62264 3.1448 1.01271 
2 2.37498 2.98712 -0.860696 
2 -0.987108 -2.02966 3.43985 
2 -1.00327 -3.71217 3.69169 
2 2.4914 0.00615605 -3.11574 
2 2.3833 1.45509 -3.27148 
2 0.715269 2.29566 -1.09222 
2 0.0837347 3.40052 -0.438134 
2 -1.0478 1.15773 -1.74938 
2 1.80252 -3.31966 3.61893 
2 -2.97542 2.12375 3.64368 
2 -0.279281 -2.86297 2.35546 
2 -2.56671 -1.49732 3.31565 
2 3.67556 -1.97076 -0.900771 
2 -2.15932 3.58266 3.30848 
2 -0.178272 2.36862 -3.59991 
2 0.665362 -3.0928 -1.16774 
2 -2.52033 0.170357 -3.35162 
2 2.00247 1.58522 -1.65825 
2 -0.783631 -0.497901 -0.73912 
2 3.76284 0.535522 3.60806 
2 1.52914 0.55873 -2.60008 
2 -2.66929 1.06567 -2.46113 
2 -2.73081 -2.88481 2.13185 
2 3.83812 -1.47335 2.46984 
2 0.87475 -2.37882 0.281364 
2 -3.58673 -1.65873 -2.35079 
2 2.26616 0.477306 2.88154 
2 -1.93257 3.42579 -1.64744 
2 0.0117795 0.842464 1.85395 
2 -3.04401 -0.327679 2.73929 
2 1.03138 0.0850463 -0.0229316 
2 0.676788 -3.49378 1.60423 
2 3.20099 2.98296 1.35618 
2 -1.37652 -1.4436 -1.75368 
2 -2.30373 0.220579 -1.31582 
2 -1.89366 -0.944241 -0.491819 
2 -2.94946 -0.990889 -1.50991 
2 -0.0697712 3.07297 2.76537 
2 0.544701 -1.42623 2.36712 
2 2.13007 2.14494 3.24849 
2 2.48169 2.61619 1.85069 
2 2.33434 -1.31965 0.100856 
2 -2.56625 -3.34461 0.649589 
2 0.820317 -2.29216 3.32001 
2 1.79973 -2.06547 3.42156 
2 3.3069 -0.756377 -0.349802 
2 -3.57923 -0.279843 -2.50346 
2 2.57861 0.357636 1.64725 
2 1.59509 -2.27171 2.24057 
2 2.89268 0.347883 -1.66482 
2 1.05785 0.0376355 1.74925 
2 -3.56532 -3.08556 -0.342048 
