ITEM: TIMESTEP
183
ITEM: NUMBER OF ATOMS
500
ITEM: BOX BOUNDS xy xz yz pp pp pp
-3.7345 3.74944 0.014938
-3.7345 3.7345 0
-3.7345 3.7345 0
ITEM: ATOMS type xu yu zu 
1 0.619978 -2.315 2.47879 
1 -2.71075 -1.41978 -0.311622 
1 2.00603 -1.86105 -3.14429 
1 -0.358737 -0.198948 -0.0860982 
1 1.17136 -2.4928 -0.499218 
1 -1.53649 -3.62974 2.9244 
1 2.06095 3.2857 -2.53189 
1 -1.22769 -0.161639 2.73472 
1 2.15685 -0.330218 -1.47855 
1 -3.38921 -2.16561 2.02669 
1 1.16292 1.84415 1.09563 
1 -1.75131 -2.06159 1.03157 
1 -1.2624 -0.00191493 -3.07929 
1 1.9996 2.9084 3.73191 
1 -2.16341 -0.55613 -2.99666 
1 0.929234 0.912531 -0.415938 
1 1.01212 -0.755605 2.17561 
1 -1.27315 0.899597 2.79793 
1 -3.3719 -2.23501 -0.180319 
1 -2.79423 -1.71051 0.719437 
1 -3.54735 1.48957 -2.35037 
1 -2.24528 -1.39442 -1.2986 
1 2.04586 1.84924 1.69348 
1 -2.45411 2.57304 0.994396 
1 -2.46118 -2.35889 -3.57429 
1 1.46932 -3.37745 -0.974237 
1 -1.74124 -2.00313 3.04897 
1 -0.732751 1.43629 -0.973254 
1 0.826234 0.971828 -3.17189 
1 -2.83978 0.151305 -2.48283 
1 3.0316 -2.76113 0.568418 
1 -2.64378 -2.65018 1.26593 
1 -1.21999 -0.772211 0.0118137 
1 3.60147 -0.216834 3.24706 
1 3.26916 0.003115 -3.19142 
1 -2.29536 0.838438 0.154208 
1 -2.94207 0.430269 -0.611488 
1 -1.86377 -1.03345 2.57391 
1 -2.30829 -0.0491053 2.54854 
1 2.78422 2.10815 -3.72167 
1 3.00656 -1.99361 -1.51343 
1 -0.436429 -3.56904 2.9716 
1 -0.0307936 -1.89602 -2.39267 
1 0.539575 -3.32777 2.46696 
1 0.801135 -0.0632797 -2.75273 
1 3.07926 2.10677 1.54879 
1 2.37346 -0.727097 -0.540241 
1 -2.46909 1.74762 1.75422 
1 2.81717 -0.597236 1.47617 
1 0.61832 -0.699324 0.130304 
1 -1.16962 1.04678 -2.76003 
1 -1.5527 2.70438 -1.55446 
1 -3.09064 -1.00744 -2.41996 
1 -0.748162 -0.174555 0.922081 
1 2.41364 -0.839275 -3.125 
1 -1.87775 2.85598 2.88016 
1 0.941448 -3.56088 -1.89452 
1 2.17359 -2.93899 2.14893 
1 0.8356 2.15251 2.09221 
1 -0.877034 -1.31202 2.93951 
1 -0.515367 2.83042 0.0267893 
1 0.133943 2.21856 2.95195 
1 1.78628 0.680975 -1.66251 
1 -3.42273 2.16237 2.05398 
1 0.569047 -3.17192 3.52289 
1 -3.07234 -3.59866 3.51816 
1 -1.70961 1.68728 -1.31239 
1 -3.41008 -3.24312 1.6405 
1 -0.256956 -2.53502 3.23764 
1 -0.595469 -1.86481 -0.299986 
1 -3.52449 2.9793 -2.47038 
1 -0.709499 1.74184 3.34735 
1 1.11358 -1.69967 1.7182 
1 1.34615 -1.04699 -2.79954 
1 0.625703 -3.46925 -0.353675 
1 1.36663 -3.70177 -3.1689 
1 -1.58464 2.55822 1.6711 
1 2.51179 -3.69021 -3.44331 
1 1.54857 2.33501 -2.02082 
1 -3.05451 -3.09749 -2.89795 
1 -0.0288051 -0.684944 2.63225 
1 -1.26283 -3.44162 -2.9116 
1 1.88838 0.701258 -3.36158 
1 -1.08182 2.20885 -3.23781 
1 3.27233 2.28565 -1.96567 
1 -2.89958 -0.339824 1.73011 
1 -0.525254 1.49278 2.28591 
1 2.50205 -3.65732 -0.746056 
1 1.29664 0.230009 0.784944 
1 -3.26091 -0.411211 -3.31175 
1 -0.515664 -0.353033 3.58592 
1 -2.92985 -1.97955 3.02602 
1 2.14843 -2.01233 1.64473 
1 -1.12956 3.55252 0.481586 
1 0.67136 0.137656 2.60859 
1 -2.33969 -2.89617 2.98864 
1 2.64489 -0.091118 2.38701 
1 -0.574966 1.76545 0.19823 
1 -1.90508 -3.2415 -1.22581 
1 -2.1294 0.726399 -3.00916 
1 3.09102 -2.60054 1.66316 
1 0.504536 -1.71402 -0.238546 
1 -3.58618 -1.21708 3.40534 
1 1.24751 0.817443 3.26143 
1 -3.54909 2.22932 -0.283474 
1 2.91447 1.12546 1.16952 
1 0.738404 0.814013 1.44323 
1 -0.036588 -2.47886 0.357468 
1 0.187454 -1.57909 3.22411 
1 2.12357 2.26049 -2.90449 
1 2.96386 0.933622 -3.48568 
1 3.68102 -2.53721 -2.22073 
1 2.07899 -1.07771 2.2057 
1 0.760931 0.777551 -2.09008 
1 -1.55162 1.48799 -0.187217 
1 3.63782 -0.560917 2.21764 
1 -2.59647 1.73876 -1.90422 
1 0.277517 -2.23973 -3.35834 
1 -2.81567 3.65932 -1.35164 
1 1.53306 -0.27406 -3.53874 
1 -2.58336 -0.603054 3.38643 
1 2.93492 -1.87278 -2.59754 
1 2.26891 -2.27785 -0.00927014 
1 2.28047 -3.61045 2.95985 
1 1.51609 1.72121 -3.62011 
1 2.1879 -2.61633 -1.01535 
1 1.73503 1.37258 -2.51279 
1 -2.20669 3.37113 0.29657 
1 -1.17129 0.48945 0.0472475 
1 2.94998 -1.05009 2.87896 
1 2.68377 1.99565 2.618 
1 -0.313145 -1.15083 0.444967 
1 -1.64337 -3.33017 -0.211474 
1 -0.183255 0.364324 -2.92013 
1 -0.988215 3.10779 2.3634 
1 -1.07481 -2.66341 2.59488 
1 0.0977687 -2.57707 -0.74326 
1 -1.79491 0.690277 -0.88949 
1 1.92578 -1.11412 1.07255 
1 -0.880358 1.86752 1.23423 
1 -2.61658 3.71525 2.48711 
1 2.24648 2.40413 -0.153276 
1 0.429309 -0.0132407 -0.785677 
1 -2.48456 -2.35967 -0.859784 
1 -2.23559 -3.66661 -2.41544 
1 -3.5118 3.1675 1.66805 
1 2.11443 -2.91302 -2.85646 
1 2.10046 1.60431 0.561089 
1 1.4431 3.70113 1.11034 
1 -2.93934 1.65506 0.418286 
1 1.63311 -3.17301 0.144696 
1 -3.50845 2.31851 0.990249 
1 2.53442 -0.0938897 3.48882 
1 -0.833386 -0.740932 1.93154 
1 2.97003 -1.60058 -0.498095 
1 0.0985804 3.69558 -1.258 
1 -3.08713 -0.436602 0.0726783 
1 -1.84014 -2.52958 -2.74674 
1 -0.770969 2.86904 3.34238 
1 3.23819 -3.65047 1.11123 
1 2.91578 -0.312284 -2.24027 
1 -0.319456 1.06521 -2.1148 
1 -2.91193 -1.10388 2.46976 
1 -3.63727 2.72868 -3.51762 
1 2.33998 -1.18322 -2.07522 
1 3.65821 2.25651 3.02929 
1 1.46679 -2.79895 2.95637 
1 2.82268 3.23721 -1.629 
1 3.2496 -3.31978 3.32077 
1 -2.58858 2.43708 -1.10209 
1 3.1038 2.85081 -0.632743 
1 -0.187711 2.52836 2.00303 
1 3.48765 -1.09063 -1.81884 
1 2.02013 2.84419 2.63327 
1 -0.551001 -0.913097 -1.63451 
1 -2.44189 3.62663 1.40001 
1 -2.16772 -3.36684 -3.46733 
1 1.22955 1.86764 -0.00853236 
1 -3.4436 1.26182 3.06631 
1 1.4606 2.41279 -0.911769 
1 0.136955 1.66906 1.45163 
1 -2.64332 -2.84139 -1.87685 
1 0.4239 -0.945537 -2.22822 
1 -3.08105 3.15469 -0.393664 
1 2.97406 2.86928 -2.89552 
1 1.16674 -2.48307 -1.55411 
1 -2.24871 2.35179 -0.0959397 
1 -2.96983 0.372046 3.35772 
1 2.5221 0.64795 -2.49454 
1 2.43296 0.171154 0.79608 
1 2.05917 -2.21539 -2.04689 
1 -3.37958 -0.201287 -1.6239 
1 1.28969 3.56534 3.23313 
1 0.0198863 1.94473 -1.65772 
1 -2.55576 2.77117 2.06526 
1 -0.315738 -1.93342 2.26848 
1 -1.24602 3.6281 1.51591 
1 -1.55535 1.90771 2.63218 
1 0.107877 -1.15386 1.64337 
1 -2.33175 0.995549 2.7223 
1 0.0917884 -0.0496202 1.69327 
1 -0.472264 -3.34064 -0.176284 
1 -0.54184 -1.90432 1.17178 
1 -0.743517 -3.08419 -1.21625 
1 0.184226 0.934891 -1.20031 
1 -3.58374 -1.12702 -0.837009 
1 3.11267 -1.5455 1.89101 
1 -3.70844 -0.365258 0.949077 
1 -1.24187 3.70332 -1.87871 
1 0.920508 -0.668536 1.14797 
1 2.98975 3.0802 3.32573 
1 -2.61367 1.45282 -0.696016 
1 -1.00126 1.94329 -2.17474 
1 -3.53148 1.72753 -1.27878 
1 1.0662 -0.215191 -1.69431 
1 0.613535 2.86999 -1.76114 
1 2.83796 -0.724159 0.423786 
1 2.76442 1.26358 -1.64427 
1 -2.53794 2.81641 -2.09603 
1 -1.73717 -1.72103 -0.0208096 
1 -1.40617 2.49721 0.542289 
1 3.72294 1.6639 -3.47336 
1 -2.66111 1.96833 2.82023 
1 -2.17021 -0.908355 0.481355 
1 -2.35399 -2.55776 0.220522 
1 0.443358 3.34264 -2.78146 
1 1.18239 2.66945 -3.0618 
1 1.30288 -1.62034 2.79039 
1 0.46136 0.148267 3.67388 
1 -0.916055 -2.70313 -2.19116 
1 2.28903 1.267 3.28245 
1 3.4507 1.3155 2.18819 
1 2.38835 3.48272 1.63042 
1 -0.0999411 -0.999667 -0.690612 
1 -0.483788 -0.643635 -2.69698 
1 -2.45356 0.660985 1.71682 
1 1.71639 3.22876 -1.51601 
1 -1.56198 2.92354 -2.5881 
1 0.332313 -0.827789 -3.35306 
1 2.00383 -1.13875 3.40806 
1 -0.376265 -3.34671 0.922395 
1 1.81814 -0.188074 1.64506 
1 0.669361 2.84909 -0.34944 
1 0.303138 2.34051 0.578024 
1 -2.72926 -1.37049 -3.36984 
1 3.15491 -2.76437 -3.15181 
1 3.38284 -2.15249 2.88655 
1 2.35444 2.609 0.946056 
1 -3.30879 0.470146 2.33962 
1 1.63865 3.29863 -0.322863 
1 -3.36038 1.24748 1.37336 
1 -2.27996 -1.20834 1.53422 
1 -1.63772 1.39099 3.70432 
1 -1.95228 1.78358 -2.73496 
1 3.54885 0.522802 -2.20775 
1 1.93402 1.41578 -0.767014 
1 -0.306422 -3.28362 -3.38487 
1 2.90056 -1.67444 -3.71192 
1 -2.69131 1.35149 -3.66338 
1 -0.612536 3.19539 -3.13129 
1 0.281169 0.218498 0.622608 
1 -1.53816 -0.751584 3.59691 
1 1.08555 -2.10729 -2.5576 
1 -3.61219 3.39402 2.74039 
1 -3.36791 0.730848 -3.13268 
1 2.40668 2.25529 -1.34503 
1 -1.40622 -0.652767 -2.20783 
1 1.16008 2.49092 3.19523 
1 1.54628 2.78479 1.65225 
1 3.3755 0.333426 1.65601 
1 1.21576 -2.80232 1.65115 
1 0.180965 1.14282 3.40482 
1 -2.48203 0.0304524 0.844448 
1 3.15026 -2.66546 -0.515679 
1 -3.61642 1.18088 -0.267538 
1 -1.32999 -2.85947 3.6083 
1 -1.31656 -1.74619 1.96952 
1 -3.32109 0.563915 0.52438 
1 0.254366 1.7949 -0.496973 
1 -2.86088 -2.09188 -2.57176 
1 1.49222 0.635866 2.24314 
1 -1.63585 -1.68726 -3.39565 
1 -0.784336 0.69316 3.71356 
1 0.462386 1.27859 0.498316 
1 -0.0864766 2.39207 -2.70566 
1 -1.78932 -3.17752 0.892714 
1 -1.03487 -1.61292 -2.46269 
1 1.5309 -2.11333 0.76004 
1 3.52924 0.653139 -1.12463 
1 2.45079 1.01981 2.21013 
1 3.08601 2.9088 2.25021 
1 2.39087 -2.65626 3.569 
1 3.16553 -0.337083 -1.12338 
1 3.02754 -3.06495 -1.52079 
1 1.32699 -2.62075 -3.47991 
1 -0.205231 3.69523 1.90228 
1 0.711964 -3.11471 0.72696 
1 -3.22399 3.40123 0.656835 
1 -2.66639 -0.531719 -0.887904 
1 -2.2034 2.30332 -3.65975 
1 -1.88665 -3.13156 2.01441 
1 -3.57572 -3.54317 -2.02424 
1 3.63696 3.72234 -3.22404 
1 2.92396 1.62718 -2.6922 
1 0.37727 -1.68328 -1.37421 
1 1.30751 -1.36302 -1.79065 
1 -0.468321 0.89086 0.981059 
1 0.262191 3.13319 3.57723 
1 -0.181603 0.83406 -0.198285 
1 2.74271 -1.74667 0.793827 
1 -3.52987 2.83364 -1.37253 
1 -0.961181 3.41107 -0.820432 
1 0.51072 2.02193 -3.54546 
1 -3.3857 -1.24455 1.50832 
1 0.741314 1.79244 -2.4692 
1 1.48679 3.72972 2.18451 
1 -2.02765 -0.108168 -0.175535 
1 3.10864 1.91749 0.411288 
1 2.36841 3.57146 0.458966 
1 -3.00637 0.808445 -1.62655 
1 0.248836 3.42256 0.44321 
1 0.521582 -1.71349 0.838116 
1 -0.599795 -1.36373 -3.48426 
1 -0.652956 -1.99272 -1.44254 
1 -1.63032 3.19817 -3.61052 
1 1.04676 1.54417 -1.38796 
1 2.99676 1.69279 -0.656791 
1 1.08305 -1.60238 -3.64094 
1 -2.86299 2.89019 3.23542 
1 1.58546 1.66655 2.63971 
1 0.548084 1.19843 2.41869 
1 -1.25949 -1.31238 -0.896018 
1 -0.525342 2.9284 1.09963 
1 -2.31236 -2.10758 2.1419 
1 1.86752 0.680306 0.0385727 
1 -1.06012 0.292484 -2.00718 
1 1.69237 -0.234621 2.82982 
1 -1.93756 1.61118 0.840869 
1 3.12179 -3.4779 2.24249 
1 0.868691 -0.749009 3.22308 
1 -1.22154 2.376 -0.607341 
1 -0.266471 1.44477 -3.13479 
1 -3.3935 -3.01892 0.536476 
1 3.11474 0.66498 2.94592 
1 1.84742 -0.179405 -2.46809 
1 -2.72963 -3.33124 -0.372001 
1 1.02299 -0.910125 -0.85784 
1 -0.982807 -2.78053 1.56333 
1 -1.73767 -2.22911 -1.71023 
1 -2.07676 -1.44434 -2.3954 
1 2.91729 -3.55876 -2.4569 
1 -2.67989 3.18379 -3.1802 
1 3.41683 0.0404674 -0.109066 
1 -3.21649 -1.84344 -1.58491 
1 0.648421 3.10552 2.47755 
1 3.30067 -3.60867 0.0182298 
1 2.89506 0.911685 0.127212 
1 1.53947 -1.52874 -0.175993 
1 3.2791 2.93261 0.462439 
1 -1.5931 0.590004 1.00338 
1 -1.28868 -1.08826 1.04179 
1 -1.9929 0.823349 -1.95437 
1 -3.72282 -1.27548 0.254017 
1 1.51587 0.041965 -0.722296 
1 0.156389 -2.75184 -1.80514 
1 -0.532718 2.91902 -1.9128 
1 2.3194 -2.00841 2.72494 
1 -1.60621 -0.339106 -1.15614 
1 -0.710116 0.310542 -0.996912 
1 2.04284 -3.29284 -1.86864 
1 2.05413 -1.58077 -1.0946 
1 0.144065 -2.68504 1.57937 
1 3.62216 -3.72494 -0.954577 
1 -2.95609 2.15263 -2.90161 
1 -1.52788 1.25577 1.81127 
1 3.42636 -0.990779 -2.89896 
1 1.84566 0.911838 1.30745 
1 0.000948321 0.0148698 -1.84452 
1 -1.76007 -0.263826 1.62174 
1 -3.42068 -3.00742 2.66764 
1 -0.887185 0.39671 1.84339 
1 -0.305531 0.453352 2.72842 
1 -1.39893 -2.42007 -0.718501 
1 -0.771591 -2.34852 -3.17013 
1 -3.73365 -2.08982 0.977253 
1 2.15392 -2.97886 1.0811 
1 1.69663 -0.525805 0.211488 
1 0.556083 3.07951 1.39685 
1 -0.18031 2.68395 -0.948888 
1 2.51585 0.485704 -0.818465 
1 -3.46485 -2.66033 3.65143 
1 0.619453 -3.06041 -2.7738 
1 -1.09083 -2.5811 0.362429 
1 -0.302205 -3.56113 -2.30677 
1 -1.88067 0.293928 3.50938 
1 -2.35664 -0.501942 -1.87604 
1 -3.44098 -2.78225 -1.16092 
1 1.32093 2.78515 0.564634 
1 -3.65129 -1.88433 -3.20714 
1 -2.02947 3.26501 -0.756031 
2 2.45309 2.59208 -2.15728 
2 3.66226 1.28603 0.610566 
2 1.26925 1.39786 1.8525 
2 -1.89591 0.0742615 -2.41947 
2 2.7898 -1.12433 -1.26198 
2 0.940188 3.37178 -1.04183 
2 1.3259 1.11905 0.591662 
2 0.0686858 -0.564925 0.957531 
2 1.21115 -1.2456 0.563745 
2 -1.70951 0.457624 2.16884 
2 -1.46559 3.06261 -0.134523 
2 2.50313 0.00982098 -0.0620682 
2 -3.00377 2.6009 0.307098 
2 -0.98805 -3.45809 2.24598 
2 -1.42286 2.28474 3.41903 
2 -3.28134 2.26773 -2.0074 
2 -3.49933 -0.242092 -0.740764 
2 -3.24774 0.366902 1.37859 
2 3.17804 1.49932 3.24213 
2 -1.72961 -3.04782 -2.06044 
2 -0.74513 2.29205 2.65549 
2 3.30519 -2.04717 0.165726 
2 -2.61775 1.00402 0.941665 
2 -3.07561 1.32914 2.24858 
2 3.29578 0.382612 0.74998 
2 1.39165 -2.90577 -2.332 
2 1.22345 3.17002 -2.32112 
2 3.60057 2.22137 -2.80043 
2 1.17722 -1.76789 -0.984951 
2 -1.29071 -0.93517 -3.03469 
2 2.51454 -3.13881 -0.0362906 
2 -1.84887 3.3891 2.13501 
2 1.09362 3.61179 0.300941 
2 0.997405 0.571802 -1.24315 
2 2.77588 -2.81039 2.77008 
2 0.864125 1.65221 3.16302 
2 3.34719 -1.17089 1.04667 
2 3.10697 -0.772309 -3.71779 
2 -0.171612 -2.73477 -2.66504 
2 -1.17457 1.24753 0.586671 
2 0.571899 -1.51716 -2.9098 
2 2.78024 -2.69115 -2.28724 
2 -1.60911 -0.235419 0.649222 
2 0.33776 -0.69526 -1.39189 
2 -1.0207 -1.69258 0.464011 
2 -0.808208 2.22902 -1.37497 
2 -2.91575 -0.780917 0.92086 
2 -1.77187 3.15348 1.02002 
2 2.25019 2.96778 -0.866762 
2 -0.96623 -2.02964 3.48501 
2 -0.985235 -3.7141 3.67626 
2 2.39651 0.035511 -3.11821 
2 2.29344 1.4783 -3.28911 
2 0.618395 2.30667 -1.09667 
2 -0.0278084 3.40203 -0.433897 
2 -1.14979 1.14894 -1.76273 
2 1.79246 -3.29696 3.643 
2 -3.08955 2.11314 3.60405 
2 -0.216748 -2.85587 2.38553 
2 -2.19763 -1.37517 3.3992 
2 3.65887 -1.99881 -0.912396 
2 -2.26087 3.54779 3.30877 
2 -0.282055 2.37797 -3.59916 
2 0.664736 -3.10141 -1.16393 
2 -2.5727 0.101778 -3.39368 
2 1.90664 1.58169 -1.6566 
2 -0.835948 -0.539782 -0.778812 
2 3.67986 0.596751 3.59801 
2 1.43239 0.563812 -2.61245 
2 -2.76207 1.06049 -2.479 
2 -2.7343 -2.89712 2.13434 
2 3.73716 -1.41916 2.51727 
2 0.834737 -2.35192 0.289681 
2 -3.6632 -1.6813 -2.36269 
2 2.17103 0.499661 2.88222 
2 -2.03458 3.42529 -1.64024 
2 -0.0783817 0.83591 1.84629 
2 -3.14065 -0.297948 2.74456 
2 0.95891 0.107552 -0.0258034 
2 0.628701 -3.49648 1.57009 
2 3.11849 2.97189 1.34302 
2 -1.45165 -1.38526 -1.7315 
2 -2.40329 0.204881 -1.34119 
2 -1.96537 -0.947726 -0.488948 
2 -3.03555 -0.998165 -1.53749 
2 -0.176632 3.07694 2.73012 
2 0.490348 -1.43704 2.40069 
2 2.03341 2.15106 3.24332 
2 2.38703 2.61683 1.85285 
2 2.34093 -1.36557 0.103903 
2 -2.60184 -3.36654 0.614417 
2 0.774494 -2.29273 3.34618 
2 1.762 -2.04034 3.44043 
2 3.24748 -0.784896 -0.346499 
2 -3.65618 -0.293997 -2.48781 
2 2.50027 0.372794 1.6341 
2 1.56407 -2.26695 2.26312 
2 2.79945 0.351264 -1.65723 
2 0.97811 0.0304881 1.74856 
2 -3.56753 -3.09191 -0.343646 
