ITEM: TIMESTEP
377
ITEM: NUMBER OF ATOMS
500
ITEM: BOX BOUNDS xy xz yz pp pp pp
-3.7345 3.77185 0.037345
-3.7345 3.7345 0
-3.7345 3.7345 0
ITEM: ATOMS type xu yu zu 
1 -2.8529 -2.08457 -2.58044 
1 -3.0564 -3.09588 -2.89141 
1 -2.48553 -2.35667 -3.58542 
1 -2.18332 -3.36951 -3.46579 
1 -1.85962 -2.54599 -2.75143 
1 -0.920848 -2.70163 -2.20251 
2 -1.73162 -3.0509 -2.05929 
1 -0.770884 -2.32998 -3.17576 
1 0.274649 -2.24878 -3.37176 
1 -0.330272 -3.27022 -3.3926 
2 -0.174574 -2.73379 -2.67375 
1 0.618906 -3.06101 -2.7734 
1 -3.24574 -0.407407 -3.32163 
1 -3.07454 -1.0014 -2.42773 
1 -2.70963 -1.36377 -3.39202 
1 -2.343 -0.495422 -1.87246 
1 -2.14126 -0.564128 -2.99066 
1 -2.07248 -1.4408 -2.37182 
1 -1.02098 -1.60599 -2.45274 
1 -1.64617 -1.6765 -3.34651 
2 -1.27305 -0.926601 -3.02709 
1 -1.39149 -0.649945 -2.20011 
1 -0.018763 -1.89892 -2.39948 
1 0.339344 -0.830688 -3.35811 
2 0.578279 -1.52412 -2.92193 
1 -0.47146 -0.646486 -2.69842 
1 0.435675 -0.946941 -2.23467 
1 -0.604085 -1.35689 -3.5047 
1 -2.64222 -2.83634 -1.87942 
1 -3.43247 -2.77966 -1.16048 
1 -2.72704 -3.32438 -0.390439 
1 -2.47273 -2.35277 -0.852354 
1 -3.37048 -2.23303 -0.18246 
2 -3.56536 -3.09029 -0.340429 
1 -1.64383 -3.31746 -0.207563 
1 -1.73492 -2.23036 -1.71162 
1 -1.91022 -3.24004 -1.22385 
1 -1.37867 -2.42122 -0.727467 
1 -0.732798 -3.08692 -1.22876 
1 -0.643346 -1.99383 -1.45108 
1 0.159052 -2.75543 -1.81346 
1 0.110083 -2.56661 -0.754623 
1 -0.478976 -3.33107 -0.187566 
1 0.619994 -3.46201 -0.358208 
2 0.665729 -3.10396 -1.1725 
1 -3.203 -1.84177 -1.59154 
1 -3.57202 -1.12133 -0.845703 
1 -3.36804 -0.204319 -1.62817 
2 -3.01688 -0.997139 -1.54155 
1 -2.65298 -0.526229 -0.885879 
1 -2.71027 -1.41313 -0.308022 
2 -3.48642 -0.235822 -0.74299 
1 -2.23375 -1.39112 -1.28838 
2 -1.4437 -1.38515 -1.72612 
1 -1.58913 -0.340178 -1.15391 
2 -1.95401 -0.953864 -0.487011 
1 -1.24701 -1.31512 -0.895203 
2 -0.822591 -0.54683 -0.769271 
1 -0.577233 -1.85631 -0.305188 
1 -0.535312 -0.911228 -1.62962 
1 0.386332 -1.6776 -1.37698 
1 -0.077143 -0.994579 -0.687842 
2 0.352252 -0.693478 -1.39634 
2 -3.64945 -1.67651 -2.37634 
1 -1.99936 -0.117504 -0.172769 
2 -3.64299 -0.290086 -2.49415 
1 -1.27698 -3.45238 -2.90558 
1 -3.58113 -3.53817 -2.02636 
1 -2.24258 -3.67032 -2.41068 
1 -0.348355 -0.202347 -0.0774949 
1 0.524539 -1.70969 -0.224784 
1 -0.309292 -3.56109 -2.31326 
1 0.81547 -0.0645357 -2.75557 
1 0.944594 -3.56732 -1.89666 
1 -3.63528 -1.87875 -3.22358 
1 1.07855 -0.212601 -1.69746 
1 1.08098 -1.61474 -3.65746 
1 1.09345 -2.11078 -2.56707 
1 1.03805 -0.907238 -0.864285 
1 1.16792 -2.48052 -1.55753 
2 1.18881 -1.76337 -0.990874 
1 1.18729 -2.48402 -0.501432 
1 1.33 -2.62373 -3.49077 
1 1.35305 -1.05472 -2.81654 
1 1.31567 -1.363 -1.80102 
1 1.36011 -3.70625 -3.18492 
2 1.38852 -2.9081 -2.32828 
1 1.4691 -3.37532 -0.975259 
1 1.54756 -0.274695 -3.54341 
1 1.56016 -1.51583 -0.18012 
1 0.443412 -0.0105983 -0.780948 
1 -1.2465 -0.000807859 -3.07664 
1 -1.74294 -1.73325 -0.0328425 
1 1.85852 -0.190839 -2.47243 
1 -3.36745 -3.28855 1.64409 
1 -3.37536 -3.01609 0.540172 
1 -2.62663 -2.64133 1.28705 
2 -2.58714 -3.35752 0.66751 
1 -2.35921 -2.56772 0.231861 
1 -1.76175 -3.15608 0.904186 
1 -1.08135 -2.5614 0.349805 
1 -0.935823 -2.78951 1.6272 
1 -1.74103 -2.05265 1.0239 
1 -0.0233879 -2.48764 0.336695 
1 0.164516 -2.68454 1.56008 
1 -0.397374 -3.32833 0.91047 
2 0.661987 -3.4768 1.61844 
1 0.706612 -3.12817 0.727958 
1 0.530251 -1.74957 0.853568 
2 0.849891 -2.36971 0.29049 
1 -2.78395 -1.71114 0.720887 
2 -2.90142 -0.789331 0.925959 
1 -3.36827 -1.25415 1.52133 
1 -2.26643 -1.21483 1.5366 
1 -2.88225 -0.350728 1.73867 
1 -2.15467 -0.914729 0.484362 
2 -1.02006 -1.66414 0.442922 
1 -1.74928 -0.266105 1.62699 
1 -1.27339 -1.08566 1.05118 
2 -1.59257 -0.245147 0.654986 
1 -0.550808 -1.92502 1.14922 
1 -0.733268 -0.172625 0.926392 
1 -0.283659 -1.1575 0.452412 
1 0.105039 -1.15698 1.62808 
2 0.0838567 -0.551883 0.950305 
1 0.636686 -0.687021 0.12481 
1 -3.69096 -0.370104 0.950701 
1 0.11061 -0.046783 1.68969 
1 -3.07033 -0.430667 0.0745422 
1 -3.71063 -1.26843 0.243808 
1 1.14662 -1.67313 1.70504 
1 0.929772 -0.678253 1.14432 
2 1.2055 -1.26005 0.55932 
1 1.23808 -2.77403 1.61315 
1 1.54886 -2.10845 0.746985 
1 -1.20017 -0.795469 0.0205063 
1 1.63263 -3.17481 0.142469 
1 1.70986 -0.512463 0.209304 
1 1.83835 -0.191117 1.65099 
1 -3.53373 1.48909 -2.34387 
1 -3.36302 0.732974 -3.12677 
2 -2.74819 1.06091 -2.47755 
1 -2.82599 0.148345 -2.48898 
1 -2.11674 0.726413 -3.0094 
1 -2.58404 1.73725 -1.89649 
1 -2.92631 0.435129 -0.608594 
1 -2.99222 0.802517 -1.62782 
1 -2.5947 1.45634 -0.690244 
2 -2.38119 0.209944 -1.33438 
1 -3.5173 1.72163 -1.27561 
1 -3.60718 1.18041 -0.26428 
1 -2.6825 1.34999 -3.65887 
1 -1.97862 0.823532 -1.95248 
1 -1.93977 1.78263 -2.72884 
2 -1.88091 0.0753091 -2.41962 
1 -1.76984 0.692478 -0.884665 
1 -1.69456 1.68826 -1.31086 
1 -1.53846 1.49518 -0.174938 
1 -1.1577 1.04689 -2.75759 
2 -1.13554 1.15332 -1.76537 
1 -1.04577 0.295749 -2.0019 
1 -0.72198 1.42954 -0.969701 
1 -0.688924 0.30074 -0.993413 
1 -0.304282 1.06588 -2.11732 
1 -0.256149 1.44662 -3.13489 
2 -2.54334 0.0902425 -3.39692 
1 -0.162318 0.83161 -0.198796 
1 -0.168515 0.363552 -2.92213 
1 0.196995 0.935315 -1.20146 
1 0.262927 1.79769 -0.495153 
1 0.754009 1.79393 -2.46555 
1 0.775402 0.778216 -2.09066 
1 0.842779 0.973399 -3.16893 
1 0.942632 0.916451 -0.415688 
2 1.0091 0.57429 -1.24346 
2 0.993742 0.117791 -0.0159182 
1 1.06128 1.54371 -1.38453 
2 1.45096 0.559273 -2.6053 
1 1.52877 0.0456707 -0.727675 
1 1.53162 1.72458 -3.61507 
1 0.0150921 0.0153878 -1.847 
1 1.74628 1.37211 -2.50879 
1 1.79933 0.68054 -1.65953 
2 -3.2303 0.351892 1.37676 
2 -2.59479 0.990135 0.93977 
1 -3.33009 1.23356 1.3796 
1 -2.90775 1.6431 0.405801 
1 -3.30405 0.566019 0.52504 
1 -2.44109 0.658576 1.72333 
1 -2.44545 1.75145 1.76643 
1 -2.26964 0.826552 0.15413 
1 -1.92383 1.60584 0.850505 
1 -1.57933 0.582913 1.00517 
1 -1.51118 1.24838 1.81138 
2 -1.15986 1.2476 0.599151 
1 -2.4699 0.0246269 0.8505 
1 -0.554449 1.75889 0.212904 
1 -1.15188 0.497657 0.0501634 
1 -0.450089 0.894021 0.991165 
1 0.153371 1.67965 1.4554 
1 0.301304 0.229594 0.616852 
1 0.473796 1.28937 0.498932 
1 0.750599 0.824341 1.44386 
2 0.997354 0.036737 1.73418 
1 1.31266 0.225919 0.806603 
2 1.33526 1.11543 0.598567 
1 1.86686 0.919431 1.3083 
1 1.87439 0.670711 0.0471116 
1 1.89989 0.700072 -3.35835 
2 1.92161 1.58144 -1.65095 
1 1.93347 -1.11128 1.06159 
1 1.9484 1.41447 -0.759772 
1 2.01336 -1.86536 -3.1579 
1 -3.72767 -2.07815 0.96281 
2 3.66844 -1.99572 -0.92207 
1 3.14114 -2.76291 -3.14747 
2 2.78237 -2.68723 -2.29442 
2 2.52004 -3.13955 -0.0287845 
2 3.1229 -0.77571 -3.72452 
1 2.50329 -3.64805 -0.742996 
1 2.42944 -0.842867 -3.13151 
1 3.44312 -0.988738 -2.90544 
1 2.9137 -1.68207 -3.72042 
1 2.0426 -3.29081 -1.86724 
1 3.15484 -2.667 -0.524521 
1 2.06259 -1.57255 -1.10348 
1 2.06318 -2.21244 -2.05333 
1 3.50016 -1.09228 -1.82627 
1 2.10601 -2.91687 -2.85581 
1 3.17846 -0.33666 -1.12712 
1 2.18932 -2.61011 -1.02321 
2 3.25937 -0.781827 -0.349728 
2 2.79543 -1.11628 -1.27575 
1 3.01131 -1.99025 -1.52276 
1 2.91054 -3.56169 -2.45693 
1 2.16957 -0.331722 -1.48163 
1 3.02924 -3.05929 -1.52749 
1 2.50169 -3.68971 -3.44793 
1 2.92819 -0.314275 -2.24341 
1 2.98093 -1.59572 -0.515857 
1 2.94448 -1.86598 -2.606 
1 2.34534 -1.18137 -2.08525 
1 3.6867 -2.53031 -2.22572 
1 2.38599 -0.721959 -0.54115 
1 3.61837 -3.71752 -0.955876 
1 2.28186 -2.27624 -0.0176813 
2 3.36937 -1.18021 1.04446 
2 3.30585 -2.03273 0.154578 
1 3.31356 -3.61862 0.024341 
1 3.23395 -3.6315 1.12233 
1 2.83541 -0.609813 1.47857 
1 2.75 -1.74482 0.7914 
1 2.17625 -2.97494 1.06174 
1 3.09641 -2.60444 1.64103 
1 2.85262 -0.722238 0.424159 
1 2.16198 -2.01327 1.63813 
1 3.05351 -2.75534 0.551231 
2 2.36557 -1.36652 0.0941419 
2 2.51594 0.0107221 -0.0545481 
2 2.30523 1.47682 -3.28231 
1 2.97422 0.932349 -3.48398 
1 2.93959 1.62041 -2.6886 
1 3.55725 0.52301 -2.20465 
1 3.43009 0.0437012 -0.109419 
1 2.77708 1.26176 -1.64054 
2 2.81076 0.348676 -1.65594 
1 3.54372 0.651574 -1.12247 
1 2.52917 0.482804 -0.814427 
1 3.01272 1.69714 -0.656175 
1 2.52922 0.643799 -2.49101 
2 2.40907 0.0331232 -3.11847 
1 3.73446 1.66365 -3.47255 
1 3.28195 0.00278963 -3.19346 
1 3.38968 0.326733 1.65372 
2 3.69743 1.30676 0.616962 
1 2.90319 0.913653 0.130574 
1 2.94227 1.1371 1.17323 
1 2.11439 1.60493 0.556779 
1 2.45499 0.172922 0.805628 
2 3.31655 0.388449 0.749717 
2 2.51391 0.378871 1.64341 
1 -2.94321 2.15009 -2.89541 
1 -2.66715 3.18209 -3.17679 
1 -2.51821 2.81126 -2.09484 
2 -3.26842 2.26807 -1.9968 
1 -3.07428 3.16759 -0.375238 
1 -3.52699 2.8279 -1.35705 
1 -2.57969 2.44306 -1.09645 
1 -3.52103 2.2276 -0.286632 
1 -2.01826 3.27176 -0.749315 
1 -3.50944 2.97864 -2.4611 
1 -2.19325 2.30109 -3.65344 
1 -2.23458 2.36907 -0.0908883 
1 -3.61803 2.72859 -3.50974 
1 -2.80197 3.64958 -1.35703 
2 -2.01635 3.42478 -1.63573 
2 -1.46135 3.0498 -0.129013 
1 -1.61971 3.19197 -3.59761 
1 -1.53678 2.921 -2.57767 
1 -1.53622 2.70585 -1.54528 
1 -1.2015 2.37278 -0.605815 
1 -1.07039 2.20882 -3.23816 
1 -0.948976 3.41294 -0.811701 
1 -0.986431 1.94555 -2.17597 
2 -0.792863 2.22412 -1.37435 
1 -0.592586 3.19841 -3.13392 
1 -0.517611 2.91825 -1.91449 
2 -0.269059 2.37161 -3.59973 
1 -0.166672 2.68669 -0.951187 
1 -0.0714839 2.39346 -2.70711 
1 0.0327792 1.94317 -1.65522 
2 -0.01842 3.40579 -0.43704 
1 0.123671 3.69122 -1.26201 
1 0.464502 3.34249 -2.78003 
1 0.524647 2.01994 -3.54284 
1 0.62929 2.86474 -1.76155 
2 0.630933 2.30635 -1.09382 
1 0.68294 2.85729 -0.350079 
2 0.966709 3.36902 -1.04639 
1 -1.22319 3.70251 -1.87249 
1 1.19977 2.6648 -3.05895 
2 1.24248 3.16028 -2.31684 
1 1.24109 1.87156 -0.00927443 
1 1.47259 2.41649 -0.911931 
1 1.56309 2.3332 -2.0153 
1 1.65861 3.30051 -0.324862 
1 1.74623 3.22815 -1.51572 
1 -2.43168 2.57605 0.998163 
1 -3.52905 3.13193 1.66066 
1 -3.18484 3.40757 0.68637 
2 -2.99473 2.60303 0.319483 
1 -3.47862 2.27483 0.997471 
1 -2.37849 3.62107 1.4157 
1 -2.18461 3.38956 0.305826 
2 -1.73432 3.14255 1.01344 
1 -1.57308 2.56728 1.68469 
1 -1.38298 2.48249 0.541422 
1 -1.22463 3.63144 1.51838 
1 -1.11115 3.5475 0.474901 
1 -0.866184 1.87224 1.24875 
1 -0.509745 2.93213 1.10054 
1 -0.495508 2.82166 0.026743 
1 0.251157 3.43285 0.435767 
1 0.322408 2.35243 0.586497 
1 0.568159 3.11945 1.39669 
2 1.10327 3.6091 0.293462 
1 1.17993 1.84783 1.09583 
1 1.33767 2.7878 0.561105 
1 1.48021 3.70854 1.09218 
1 1.55314 2.79862 1.64477 
1 2.7949 2.10548 -3.71605 
1 2.14264 2.26064 -2.89386 
1 2.99067 2.87189 -2.89341 
2 2.27856 2.97459 -0.86228 
1 2.42108 2.25823 -1.33947 
1 2.25763 2.40326 -0.155254 
1 3.12492 2.86532 -0.598753 
1 3.28301 2.28392 -1.9643 
1 2.85217 3.23899 -1.61719 
2 2.46491 2.60738 -2.14725 
2 3.61476 2.21982 -2.7962 
1 2.07385 3.29167 -2.53731 
1 3.65447 3.72612 -3.22344 
1 3.1249 1.92326 0.407097 
1 2.39391 3.50159 1.64193 
2 3.09965 2.99943 1.3608 
1 3.32431 2.93367 0.502718 
1 2.05929 1.85934 1.69626 
1 2.36806 2.61409 0.945953 
1 2.40045 3.56695 0.450029 
1 3.09632 2.12862 1.55998 
1 -0.871224 0.39263 1.84671 
2 -0.0629127 0.837251 1.85351 
1 -0.825359 -0.739149 1.93816 
1 -3.38842 -2.19981 1.99547 
2 -2.72641 -2.88473 2.15062 
1 -3.42146 -3.01821 2.66843 
1 -2.30968 -2.0881 2.1812 
1 -2.32406 -2.87297 2.98632 
1 -3.01482 -2.03302 2.99463 
1 -1.8746 -3.11511 2.02412 
1 -1.08373 -2.64006 2.64519 
2 -1.02286 -3.44596 2.26451 
2 -0.899082 -2.07665 3.42722 
1 -1.74082 -1.95233 3.10616 
1 0.503818 -3.30867 2.51541 
1 -0.171667 -2.57114 3.17712 
2 -0.263615 -2.87772 2.32613 
1 0.652644 -2.30321 2.43923 
1 -0.463091 -3.58311 2.98003 
2 0.756727 -2.32583 3.32742 
1 -3.07952 -3.60872 3.51359 
1 -2.88878 -1.118 2.49187 
1 -2.53446 -0.585617 3.40067 
2 -3.11969 -0.310869 2.76555 
1 -3.5615 -1.20424 3.3932 
2 -2.42008 -1.4215 3.21159 
1 -1.2125 -0.156798 2.73942 
1 -1.30892 -1.75652 1.96838 
1 -1.50367 -0.764204 3.59619 
1 -1.84186 -1.02267 2.55738 
1 -0.855696 -1.32091 2.91578 
1 -0.304053 -1.9543 2.2473 
1 -0.494026 -0.343106 3.58044 
1 0.192836 -1.58299 3.20637 
1 -0.0136567 -0.679319 2.62464 
2 0.498757 -1.43021 2.38434 
1 0.583375 -3.22414 3.57474 
1 -1.55346 -3.6283 2.94551 
1 -1.35108 -2.8535 3.63483 
1 -2.29537 -0.0463828 2.55096 
1 0.878231 -0.746721 3.22086 
1 1.01753 -0.742962 2.17189 
1 1.31483 -1.60694 2.77799 
1 1.46332 -2.80666 2.94493 
1 -3.49174 -2.68682 3.66602 
2 1.57094 -2.26382 2.25531 
2 -1.00755 -3.71262 3.68763 
1 1.70664 -0.235829 2.82539 
2 1.75936 -2.04663 3.42611 
2 1.78825 -3.30412 3.62602 
1 -2.95509 0.374695 3.3663 
1 -3.43051 1.26351 3.06199 
1 -3.29857 0.45557 2.34814 
2 -3.04971 1.31143 2.24948 
1 -2.3134 0.992245 2.72908 
1 -1.85579 0.295502 3.51139 
1 -1.62822 1.39089 3.70414 
2 -1.69306 0.455304 2.1729 
1 -1.25609 0.903062 2.79855 
1 -0.772908 0.696174 3.71576 
1 -0.698167 1.73959 3.34601 
1 -0.509544 1.4968 2.28585 
1 -0.291409 0.457507 2.73056 
1 0.195034 1.1417 3.4077 
1 0.482694 0.149765 3.67583 
1 0.563972 1.20753 2.42112 
1 0.684343 0.146103 2.60784 
2 0.880175 1.64943 3.16954 
1 1.26469 0.818557 3.2611 
2 1.28455 1.40404 1.85371 
1 1.5054 0.637665 2.23925 
1 1.59822 1.66837 2.64134 
2 3.76417 -1.4492 2.51441 
1 -0.198622 3.7351 1.90345 
1 1.46553 3.75838 2.16422 
1 2.01472 -1.14341 3.40612 
1 3.36954 -2.1738 2.86739 
1 3.6593 -0.572949 2.22707 
1 2.54641 -0.0948646 3.48792 
1 3.61045 -0.208702 3.2453 
1 2.09267 -1.08068 2.20087 
1 2.66525 -0.0943711 2.3887 
1 3.13006 -3.46913 2.23439 
1 2.17288 -2.94388 2.13338 
2 2.75959 -2.825 2.76798 
1 2.27874 -3.62189 2.94029 
1 2.31809 -2.01523 2.71847 
1 2.38666 -2.66187 3.56471 
1 2.96398 -1.05912 2.87588 
1 3.12856 -1.55633 1.89277 
1 3.23918 -3.33463 3.31166 
1 3.12381 0.6699 2.94729 
2 3.19126 1.50067 3.24734 
1 3.46333 1.30626 2.1798 
2 3.69332 0.604967 3.59706 
2 2.1855 0.499176 2.88025 
1 2.29937 1.26686 3.28558 
1 2.46036 1.02811 2.21419 
1 -3.4015 2.14439 2.06727 
1 -2.63781 1.96317 2.8283 
1 -2.55307 2.77817 2.07499 
1 -2.85009 2.88232 3.23485 
1 -3.58662 3.38561 2.7233 
2 -2.24736 3.52881 3.32616 
1 -2.57999 3.72447 2.50174 
2 -3.07731 2.11027 3.6064 
1 -1.85992 2.85293 2.884 
2 -1.82288 3.39147 2.14415 
1 -1.54 1.90732 2.62552 
2 -1.41669 2.27163 3.41933 
1 -0.968535 3.11958 2.37109 
1 -0.767351 2.85982 3.34834 
2 -0.732589 2.29416 2.65358 
1 -0.1701 2.54067 2.00598 
2 -0.162606 3.06689 2.74955 
1 0.147358 2.21152 2.95096 
1 0.274513 3.12093 3.5817 
1 0.653696 3.11892 2.4778 
1 0.853749 2.16354 2.09509 
1 1.16673 2.48936 3.19713 
1 1.32039 3.5534 3.21425 
1 2.01394 2.83856 2.62889 
1 2.0155 2.90201 3.73351 
2 2.3889 2.63047 1.85183 
1 3.67104 2.25873 3.0358 
1 2.6985 1.99765 2.62408 
1 3.07322 2.92621 2.27044 
2 2.04561 2.14988 3.24427 
1 3.01258 3.07794 3.34089 
