LAMMPS data file from restart file: timestep = 16777216, procs = 4

500 atoms

2 atom types

-3.7345000000000002e+00 3.7345000000000002e+00 xlo xhi
-3.7345000000000002e+00 3.7345000000000002e+00 ylo yhi
-3.7345000000000002e+00 3.7345000000000002e+00 zlo zhi

Masses

1 1
2 2

Pair Coeffs

1 1 1
2 0.5 0.88

Atoms

269 1 -3.2485783271829742e+00 -2.7885506343498250e+00 -2.9763823521520552e+00 0 0 0
413 2 -2.8044542231979910e+00 -2.8774783336832539e+00 -2.1473527692981338e+00 0 0 0
131 1 -2.6280204911960201e+00 -3.5122003094029366e+00 -3.3320047403654645e+00 0 0 0
453 2 -2.6121749468279716e+00 -2.4280221347072097e+00 -3.5303335490761838e+00 0 0 0
104 1 3.6877645706972513e+00 -2.7920190737195569e+00 -2.0521539748546345e+00 0 0 0
240 1 -2.1860511184281175e+00 -3.6091361276479423e+00 -2.1659443532542606e+00 0 0 0
379 1 -2.1999904699932404e+00 -2.6828899195037454e+00 -2.8231637227567785e+00 0 0 0
415 2 -1.5097380306343200e+00 -3.0572908043078231e+00 -2.3383011801069720e+00 0 0 0
435 2 -1.2836246232662858e+00 -2.5962745485368401e+00 -3.2734336942091251e+00 0 0 0
253 1 -1.1482017192027343e+00 -2.0799750058113258e+00 -2.5696738327163557e+00 0 0 0
52 1 -1.6105190368217130e+00 -3.5358973268493217e+00 -3.1009389639966520e+00 0 0 0
352 1 -7.5704065664370002e-01 -2.9918263321047474e+00 -2.7531025495897437e+00 0 0 0
62 1 -2.6972006094757339e-01 -2.1816132399470791e+00 -3.2176357846835368e+00 0 0 0
42 1 -5.5767144042793482e-02 -2.4810070176826495e+00 -2.1827260776206212e+00 0 0 0
233 1 3.2932711512065493e-01 -2.9927298512849534e+00 -2.9865940761907366e+00 0 0 0
487 2 5.1493199215038987e-01 -2.2024499392615722e+00 -3.4763639452857111e+00 0 0 0
301 1 -1.1999652070819222e-01 -3.4596458344804519e+00 -1.8845877807389879e+00 0 0 0
419 2 -8.5681372968242783e-02 -3.6965393514672691e+00 -3.6831528849171358e+00 0 0 0
152 1 1.6735886725067912e+00 -2.2390076894555371e+00 -2.4250936393437743e+00 0 0 0
372 1 1.9024713075711304e+00 -3.2148927556297888e+00 -2.4343819398873774e+00 0 0 0
165 1 1.2342807090404901e+00 -2.6119870995062477e+00 -3.3169342869618466e+00 0 0 0
475 2 9.9874588762565031e-01 -2.7052964434470721e+00 -2.4505006447626863e+00 0 0 0
159 1 1.8789859821783406e+00 -3.4537497342008883e+00 -3.4564030951348692e+00 0 0 0
444 2 1.1329640305386361e+00 -3.5877855998538712e+00 -3.0063788625998535e+00 0 0 0
178 1 7.7209041888946528e-01 -3.6608522797914964e+00 -2.2346305696724689e+00 0 0 0
440 2 1.7337737219845577e+00 -1.8340148652537971e+00 -3.1605945359825749e+00 0 0 0
18 1 2.3097067200292676e+00 -2.5249851440349498e+00 -3.2158301314140676e+00 0 0 0
87 1 2.9372480232478937e+00 -3.3754294813156949e+00 -2.6355190851496881e+00 0 0 0
57 1 2.7228692243660260e+00 -2.3428437957213144e+00 -2.2638985430889522e+00 0 0 0
67 1 3.3590039331355910e+00 -2.7130060101420401e+00 -3.5576753666288918e+00 0 0 0
464 2 2.8445440248728451e+00 -3.5141482035948002e+00 -3.6342045259388400e+00 0 0 0
322 1 -3.0491405346064870e+00 -1.9087493254781831e+00 -2.0607523854101828e+00 0 0 0
101 1 -2.7657108770285532e+00 -1.4993097386667853e+00 -3.0144531422376430e+00 0 0 0
311 1 -2.7926130148533526e+00 -3.6253933773644731e-01 -3.3688434130312559e+00 0 0 0
308 1 -2.6065578436700485e+00 -8.3994826016823998e-01 -2.1524650253869417e+00 0 0 0
455 2 -3.4779524064620269e+00 -1.1012742901729546e+00 -2.4358723969440002e+00 0 0 0
360 1 -3.4063570476113996e+00 -1.8395532053965127e-01 -2.5015234129494610e+00 0 0 0
350 1 -3.5584748583972168e+00 -9.6364358383227167e-01 -3.3173924622625965e+00 0 0 0
336 1 -1.8661881441799337e+00 -1.8421871321382479e+00 -3.4155351506507756e+00 0 0 0
180 1 -2.0831633369274338e+00 -1.7472595628133405e+00 -2.2883135791149845e+00 0 0 0
339 1 -1.9102502763072180e+00 -8.6412713880203573e-01 -3.0661049660352013e+00 0 0 0
172 1 -1.1828621079534669e+00 -1.0049841757975191e+00 -2.3151004669722259e+00 0 0 0
166 1 -9.6385839593730316e-01 -1.2711599416065831e+00 -3.3086940801111786e+00 0 0 0
265 1 -1.2742224912440470e+00 -2.2882697857510681e-01 -3.6838146130652949e+00 0 0 0
426 2 -1.4183297580853151e+00 -1.9950082632866101e-01 -2.7453487021196104e+00 0 0 0
430 2 -5.5865640973059327e-01 -1.7515714022369786e+00 -1.9192453847823332e+00 0 0 0
85 1 6.0837755922121084e-01 -1.8391749076405401e+00 -2.7159560305387900e+00 0 0 0
390 1 -4.8937219699205048e-01 -2.9390733506894567e-01 -2.8152243713263712e+00 0 0 0
454 2 2.4446303960456184e-01 -1.3180340249100448e+00 -3.2957372646962191e+00 0 0 0
229 1 -2.1362435336070812e-01 -1.2457308122440878e+00 -2.4917726887604310e+00 0 0 0
238 1 7.6117691251302144e-01 -6.7298018634764711e-01 -3.1273411243752682e+00 0 0 0
242 1 3.0332148944923282e-01 -3.8449429286859887e-01 -2.1424004832990575e+00 0 0 0
434 2 7.7033506822935915e-01 -1.1210473803167755e+00 -2.3257795247798461e+00 0 0 0
465 2 1.4450959240713754e+00 -2.3762318102116572e-01 -2.6877311181911940e+00 0 0 0
28 1 1.5272419622159772e+00 -1.1484167186381733e+00 -2.7115821506149094e+00 0 0 0
488 2 1.4546010499632764e+00 -7.3596987259741864e-01 -3.5162918511370922e+00 0 0 0
433 2 2.1670864442926066e+00 -1.6700007859093213e+00 -1.9955636046862315e+00 0 0 0
49 1 2.3163575875589641e+00 -8.0145656278152722e-01 -2.0756786951589392e+00 0 0 0
329 1 1.3268906807929026e+00 -4.8985121425196587e-01 -1.9224182299758565e+00 0 0 0
376 1 1.0603878803164875e+00 -1.4934889948838554e+00 -3.5992715174192389e+00 0 0 0
10 1 2.9849455939177107e+00 -6.1754628532332967e-01 -3.6641516055472874e+00 0 0 0
69 1 2.2281080932075699e+00 -2.4819233632096477e-01 -3.0117068155939632e+00 0 0 0
197 1 3.6463832734351400e+00 -1.8912001992335057e+00 -2.7904942662678778e+00 0 0 0
113 1 3.2787220605429148e+00 -1.4625319203904266e+00 -1.9109018746632740e+00 0 0 0
6 1 3.1560205772190004e+00 -6.9339142781923913e-01 -2.6192938060032516e+00 0 0 0
157 1 2.5397238760888015e+00 -1.4900642464348941e+00 -2.8308923056061115e+00 0 0 0
220 1 -2.9527739399987967e+00 -2.7010139087844904e+00 -1.3273983403571541e+00 0 0 0
356 1 -3.2402836677789777e+00 -2.4625421302941679e+00 -3.2949248082996335e-01 0 0 0
330 1 -2.3129959536006606e+00 -2.9295552041416850e+00 -5.1360415730920195e-01 0 0 0
239 1 -2.7848474692552205e+00 -3.7060634164910313e+00 -1.2128858287362778e+00 0 0 0
224 1 2.6207157760138173e+00 -1.1154215833170670e-02 -1.2123095626265159e+00 0 0 0
39 1 -1.7185565373483596e+00 -3.5340452315217479e+00 -1.1872028560230801e+00 0 0 0
260 1 -1.9876334786093011e+00 -2.6269000873953705e+00 -1.7466060618746657e+00 0 0 0
162 1 -1.3496346960811760e+00 -2.6085339939348007e+00 -7.1675324596715473e-01 0 0 0
272 1 -9.8358704818655873e-01 -2.8017736220479037e+00 -1.7296294972272117e+00 0 0 0
296 1 -2.0505916568970073e+00 -1.8668357418418469e+00 -1.9404198328595632e-01 0 0 0
408 2 -7.8062593151381166e-01 -3.6343055211656439e+00 -1.2999315648344618e+00 0 0 0
382 1 -4.0606671775733949e-01 -2.1579089873874779e+00 -6.1517838744362882e-02 0 0 0
276 1 4.5797550457584152e-01 -2.4517466336225850e+00 -6.8760578718407905e-01 0 0 0
297 1 -4.2498974442505072e-01 -3.0526264775677081e+00 -7.3848602203172498e-01 0 0 0
484 2 3.0101860684584165e-02 -2.7210655170951523e+00 -1.4373692689466062e+00 0 0 0
188 1 -4.6279156336327404e-01 -2.0033924908649512e+00 -1.0865894210350318e+00 0 0 0
91 1 6.6744083022836664e-01 -3.3065204059016704e+00 -1.2392282022901788e+00 0 0 0
366 1 4.6217603490338499e-01 -3.3761703123893696e+00 -1.7402603221544699e-01 0 0 0
281 1 1.6418061819514616e+00 -3.6950518876760992e+00 -1.4683760907039207e+00 0 0 0
95 1 1.2966355123474358e+00 -1.9113627735845300e+00 -7.6539671369719509e-01 0 0 0
271 1 8.5313748232763020e-01 -2.3846160239997642e+00 -1.6891742726064856e+00 0 0 0
278 1 1.4634082862020370e+00 -2.9806291205128672e+00 -5.6817380742603163e-01 0 0 0
102 1 1.8321141730105062e+00 -2.4820492879813862e+00 -1.4187609556808258e+00 0 0 0
460 2 2.1510873335255747e+00 -2.1328441986811737e+00 -7.0325750952007227e-01 0 0 0
86 1 3.6051212456608970e+00 -3.0019561205107914e+00 -9.3060458704374915e-01 0 0 0
20 1 2.5880415315896865e+00 -3.1358224354359963e+00 -1.5590113464343209e+00 0 0 0
201 1 2.5143862604235840e+00 -2.8064731325359631e+00 -3.9805685249344480e-01 0 0 0
335 1 2.8729719539030802e+00 -2.1722398516480141e+00 -1.2000192570158668e+00 0 0 0
414 2 3.4022234309656638e+00 -2.2425964591501200e+00 -4.3951884316297529e-01 0 0 0
324 1 3.4402578361498954e+00 -3.7258720069192881e+00 -1.6539952082264726e+00 0 0 0
34 1 -3.5899470947608036e+00 -1.7672785250806231e+00 -1.1124641252749448e+00 0 0 0
290 1 2.8649552837684507e+00 -3.7262188392763358e+00 -7.5041369919589174e-01 0 0 0
497 2 -2.9534369218035765e+00 -6.3803301705225871e-02 -1.7315066348788704e+00 0 0 0
77 1 -2.3672512281500162e+00 -1.7841451739858298e+00 -1.1801321059010852e+00 0 0 0
291 1 -3.3154755518505037e+00 -8.1224068019380158e-01 -5.8013787980536791e-01 0 0 0
73 1 -3.5443015673420462e+00 -6.3747477698285715e-01 -1.5316370901972995e+00 0 0 0
334 1 -2.5290068687054759e+00 -6.4154808036887268e-01 -1.2125625435318956e+00 0 0 0
482 2 -2.9206861011326843e+00 -1.5351474797125251e+00 -3.3865162863389148e-01 0 0 0
184 1 -1.3313040651254593e+00 -1.8047830532474152e+00 -1.5086890201403051e+00 0 0 0
489 2 -1.8027751869578783e+00 -1.1444352539296767e+00 -1.5797981637387157e+00 0 0 0
71 1 -1.5470567511253956e+00 -3.1617512996625319e-01 -1.5831921147808625e+00 0 0 0
479 2 -9.8686509823834068e-01 -4.3643253604344545e-01 -9.1400908527928915e-01 0 0 0
429 2 -1.2456348996178177e+00 -1.6794553432593167e+00 -5.6115752321007972e-01 0 0 0
231 1 -1.6559626995619179e+00 -9.6093598403160274e-01 -7.6954973824521433e-01 0 0 0
380 1 3.7139508730619921e+00 -1.6160267377638873e+00 -1.7135058952609899e-02 0 0 0
353 1 -9.5907635576774408e-01 -1.1648909192159345e-02 -1.8100855878022279e-01 0 0 0
209 1 -5.8995039282754969e-01 -9.3180185825164152e-01 -1.4876394054528868e+00 0 0 0
458 2 -1.5516000608484173e-01 -2.4965448332851928e-01 -4.2917560420871209e-01 0 0 0
26 1 -6.7303246185089260e-01 -1.0034181306456671e+00 -3.6627423682681021e-01 0 0 0
7 1 3.6203110346999101e-01 -5.9976439499989909e-01 -1.1636024972594303e+00 0 0 0
213 1 2.4820901135083001e-01 -1.4301876577622181e+00 -5.8241191069642650e-01 0 0 0
192 1 2.6643819399660351e-01 -1.5655598165879727e+00 -1.6841853806940390e+00 0 0 0
300 1 1.2172085991065464e+00 -8.5832119641612947e-01 -7.3939629761782011e-01 0 0 0
473 2 1.7980223959577348e+00 -1.3950417724842297e+00 -3.4074605598498237e-01 0 0 0
9 1 2.1588599531320276e+00 -1.3696388823880554e+00 -1.1969362933763559e+00 0 0 0
469 2 1.8645734245847314e+00 -6.1378670307183414e-01 -1.2525996590609292e+00 0 0 0
37 1 2.1496633700419525e+00 -6.3872126182275935e-01 -3.3459737086217906e-01 0 0 0
187 1 1.3209473724259126e+00 -1.4806394541585866e+00 -1.7734258136979788e+00 0 0 0
407 2 3.0983989431985899e+00 -4.5737741378748753e-01 -1.6987886326832842e+00 0 0 0
228 1 3.1201773412508427e+00 -9.2332118486858228e-01 -9.3733132952735254e-01 0 0 0
383 1 2.7190799830523433e+00 -1.6321356861346048e+00 -3.3302458250600092e-01 0 0 0
326 1 -2.9898718930636896e+00 -3.4572033356941230e+00 -4.1377091405309319e-02 0 0 0
120 1 -3.6915672887765556e+00 -3.7016534600521864e+00 -3.2189506042671376e+00 0 0 0
133 1 2.0913723917292484e+00 -3.7110617471976197e+00 -9.3476954738937454e-02 0 0 0
256 1 -3.4878768366478785e+00 -2.4985413038780777e+00 6.7330787694237015e-01 0 0 0
189 1 -2.7993829957811540e+00 -3.1928945502688890e+00 1.5504193488485181e+00 0 0 0
452 2 -2.9331362886001680e+00 -2.1032448239766359e+00 1.2959619816039147e+00 0 0 0
409 2 -3.6218389788901568e+00 -3.6855985931314339e+00 1.7466924530049710e+00 0 0 0
325 1 -2.4039105506478449e+00 -2.6924201514968233e+00 6.1729924239761003e-01 0 0 0
93 1 -3.6054778697225487e+00 -2.4993390642599382e+00 1.9107903430027551e+00 0 0 0
106 1 -3.4696833109694212e+00 -3.6634347724107599e+00 8.8008487187071416e-01 0 0 0
348 1 -1.6409522327015071e+00 -2.8519600155489004e+00 1.4590236899982951e+00 0 0 0
257 1 -1.2553721467301235e+00 -2.4220550565410792e+00 5.0268330423632812e-01 0 0 0
309 1 -9.5757194542325907e-01 -2.0833796145669092e+00 1.5448113693828021e+00 0 0 0
8 1 -1.5508010962112107e+00 -3.3475112593817484e+00 1.0644172375800966e-01 0 0 0
437 2 -8.2085159667619711e-01 -2.8837448641372276e+00 1.1875368586905011e+00 0 0 0
32 1 -1.1502751198585379e+00 -3.6769819054525272e+00 9.6312114751423805e-01 0 0 0
147 1 -1.6738555395246177e-01 -3.5466725939448032e+00 1.2641268310959373e+00 0 0 0
4 1 -5.0367270944263597e-02 -2.4618405587022014e+00 9.1123786873314083e-01 0 0 0
65 1 -4.6664293206354207e-01 -3.1760214278477714e+00 3.0643325155409334e-01 0 0 0
439 2 5.9582497072080365e-01 -3.1151501036704450e+00 7.9015461336597337e-01 0 0 0
478 2 -8.9137088115029767e-02 -1.7495930683288841e+00 1.6538109125973850e+00 0 0 0
393 1 7.8708171529973348e-01 -2.3480794200015502e+00 2.4229453471558127e-01 0 0 0
36 1 7.6121782514652980e-01 -2.6140224411423105e+00 1.5341420682665892e+00 0 0 0
223 1 1.8602151463519692e+00 -3.0802833239440761e+00 1.4455695231398311e+00 0 0 0
66 1 1.3208326080073776e+00 -3.3259424037541976e+00 5.0745501104417001e-01 0 0 0
204 1 3.2586402510717845e+00 -6.0502784452773406e-01 3.1019797853594169e-02 0 0 0
154 1 1.8340751579046877e+00 -2.2861655059625035e+00 8.8033022704708447e-02 0 0 0
243 1 1.4828340382988832e+00 -2.1237186760828775e+00 1.0199342267402969e+00 0 0 0
262 1 2.3884870617726710e+00 -3.0641973048700817e+00 5.9560516426149490e-01 0 0 0
127 1 3.2246215415138937e+00 -3.0691584701655770e+00 1.1760904215324750e+00 0 0 0
449 2 3.3903274634796943e+00 -2.1024826958784639e+00 1.2522519600097695e+00 0 0 0
72 1 2.7167025820344750e+00 -2.4262821179028990e+00 1.7037512046854779e+00 0 0 0
196 1 3.0072754621737472e+00 -2.3182862457475730e+00 3.7919131653925964e-01 0 0 0
185 1 3.3775312487269811e+00 -3.4065786823182189e+00 9.3435003947977213e-02 0 0 0
474 2 2.3337713402366433e+00 -2.2146899467086700e+00 8.8630467808277003e-01 0 0 0
499 2 2.4219058330265693e+00 -3.6637075781429624e+00 1.4121926173910841e+00 0 0 0
315 1 -3.4483401983644550e+00 -1.4248719150499092e+00 1.2096456383076037e+00 0 0 0
327 1 -2.8843561797440875e+00 -5.7067644041066745e-01 9.4117139285374551e-01 0 0 0
273 1 -2.7444628481669491e+00 -1.6501527680552894e+00 5.1038909129812648e-01 0 0 0
302 1 -2.4824431632917081e+00 -1.1822957239060730e+00 1.6838123854644382e+00 0 0 0
412 2 -3.4719526664272551e+00 -9.0050255076809993e-01 4.2456495057384885e-01 0 0 0
451 2 -3.2833618426699953e+00 -7.7678541933696743e-01 1.7197623983013677e+00 0 0 0
155 1 2.6268519266229005e+00 -8.2426929154961071e-01 2.7222385615883478e+00 0 0 0
244 1 -1.9121436300875323e+00 -1.9225988367273410e+00 1.1795890659807817e+00 0 0 0
105 1 -9.7120335229279586e-01 -1.1329175386442246e-01 1.7709231539133412e+00 0 0 0
446 2 -2.1474361962166353e+00 -1.0461953544102729e+00 8.4632871963784551e-01 0 0 0
323 1 -1.5621127028032256e+00 -3.3263280451200899e-01 6.3181613539350701e-01 0 0 0
194 1 -1.4317274224746797e+00 -1.0790443286100495e+00 1.4493359126589420e+00 0 0 0
304 1 -1.4402636642382860e+00 -1.2505017121526791e+00 2.6088977167010091e-01 0 0 0
168 1 -2.1231247467942698e+00 -7.9361718294729849e-02 1.4671841989788692e+00 0 0 0
448 2 2.0594055429509114e-01 -1.5482092564929035e+00 2.7809567950472430e-01 0 0 0
331 1 5.5338847082797704e-01 -3.1901129258589195e-01 1.1222863876649425e+00 0 0 0
236 1 -5.3041914351614261e-01 -4.7868567408104351e-01 8.0326537073723614e-01 0 0 0
143 1 -5.6103950887997966e-01 -1.5454991642990394e+00 7.2629159965499479e-01 0 0 0
318 1 -1.5343829536132511e-01 -9.2165513758786277e-01 1.6984150613773858e+00 0 0 0
76 1 5.8783519185639654e-01 -1.5921652215789170e+00 1.1732653655091807e+00 0 0 0
264 1 2.4020942026130823e-01 -7.1596264963069611e-01 1.2394580238342195e-01 0 0 0
12 1 1.0755402762544131e+00 -1.4016616578378382e+00 1.7855816663805157e-01 0 0 0
40 1 1.4229360535493383e+00 -3.1422189155564112e-01 3.2503394343394415e-01 0 0 0
349 1 1.4853367576337375e+00 -9.0028528736751889e-01 1.2381284360992901e+00 0 0 0
182 1 2.0358274639619807e+00 -1.3270096542899108e+00 4.7295592300289518e-01 0 0 0
480 2 1.2815475919799457e+00 -1.7693114813379249e+00 1.9093889959318773e+00 0 0 0
193 1 2.1998282813745176e+00 -1.5777066722503412e+00 1.5658485133857432e+00 0 0 0
365 1 2.4094763002385369e+00 -3.0709781280154119e-01 7.3163619488003795e-01 0 0 0
14 1 -1.4148463065506178e+00 -3.6918816210399159e+00 2.8437563720063062e+00 0 0 0
63 1 3.5478881035740910e+00 -4.7787546108789164e-01 1.1171475316098369e+00 0 0 0
150 1 3.0001398904498737e+00 -1.3459135054969558e+00 8.4135698718897989e-01 0 0 0
158 1 2.6239105611072566e+00 -4.5124038483559786e-01 1.6628147991104651e+00 0 0 0
337 1 -3.3074488270895648e+00 -1.9776690652095281e+00 3.6886862088459984e+00 0 0 0
46 1 -3.3375853714941575e+00 -3.4528718950107176e+00 2.4757819034572544e+00 0 0 0
410 2 -2.9890445922296731e+00 -2.5731016459499361e+00 2.6393823761179935e+00 0 0 0
314 1 -3.0610812244136274e+00 -2.9710735781712527e+00 3.3907256771086782e+00 0 0 0
432 2 -2.4608750444060492e+00 -3.6752623860058433e+00 3.2383111340581991e+00 0 0 0
392 1 -2.4249348261747774e+00 -2.3002351680613602e+00 1.9712914188840420e+00 0 0 0
235 1 -2.2822242642732933e+00 -3.1297410872838256e+00 2.5107967886654041e+00 0 0 0
400 1 -2.3360412772524395e+00 -2.0743303640179556e+00 3.0242751209894339e+00 0 0 0
89 1 -9.3305267672103598e-01 -3.4377038456105624e+00 1.9727175138103084e+00 0 0 0
270 1 -1.9708877490275629e+00 -2.9363322443634785e+00 3.5127159180391190e+00 0 0 0
84 1 -9.9292211912598360e-01 -2.1968161991648527e+00 3.4006390483461173e+00 0 0 0
355 1 -1.2964951981378252e+00 -2.6134782224421325e+00 2.5289785664556512e+00 0 0 0
126 1 -8.5953139231160725e-01 -3.1922628543837042e+00 3.7044325825056759e+00 0 0 0
397 1 -3.3694862228226258e-01 -3.6092629370808811e+00 2.7462455327433148e+00 0 0 0
287 1 -2.5360680295365662e-01 -2.7239756973689966e+00 1.9673887122719380e+00 0 0 0
401 2 -3.0975002843841976e-01 -2.5366579741116042e+00 2.8052669136699424e+00 0 0 0
381 1 7.1602922896335686e-02 -2.7934113043154909e+00 3.4677919203718699e+00 0 0 0
190 1 5.8155449683403104e-01 -3.0798642722144383e+00 2.5065742429757143e+00 0 0 0
51 1 3.5875078827841218e+00 -5.6460035458735658e-01 2.3049763596696509e+00 0 0 0
384 1 7.9404281238370744e-01 -3.4518312191548892e+00 3.6291547275008353e+00 0 0 0
424 2 1.4792969225621322e+00 -3.3645493280053080e+00 2.1992004692464060e+00 0 0 0
60 1 9.9466465003481142e-01 -2.3226933840630730e+00 3.2181272591113528e+00 0 0 0
387 1 1.6304063438863261e+00 -3.1684264593719704e+00 3.0517491733672650e+00 0 0 0
305 1 1.6223459270994858e+00 -2.3809618528876948e+00 2.3490378119533259e+00 0 0 0
55 1 1.9430771564909806e+00 -2.2138078148225397e+00 3.3952536410425576e+00 0 0 0
298 1 -2.4216655447945432e+00 -7.3364999200986403e-01 1.3927495771379729e-02 0 0 0
471 2 2.3104866422605488e+00 -2.8331744297027277e+00 2.3467114616853939e+00 0 0 0
361 1 3.5092575850415448e+00 -3.5102077759395831e+00 3.2989103443464405e+00 0 0 0
215 1 3.5564844554896222e+00 -2.2718113581436232e+00 2.8991461070468136e+00 0 0 0
123 1 2.6917451500920806e+00 -2.8879829309963880e+00 3.1019623426133629e+00 0 0 0
75 1 3.1314515278079096e+00 -3.3135332800123254e+00 2.3299102956093471e+00 0 0 0
25 1 2.4925389080223561e+00 -1.7924622911917194e+00 2.6117295032736032e+00 0 0 0
82 1 -3.3116997119089393e+00 -1.5436891301242861e+00 2.3404373094528457e+00 0 0 0
156 1 -2.7781583207375613e+00 -1.1783409295512575e+00 3.4116112573172162e+00 0 0 0
44 1 -2.7671539051443510e+00 -5.4796602655689686e-01 2.4102299266299605e+00 0 0 0
351 1 -3.3252468167873572e+00 -1.4988362135899636e-01 3.1659391851742273e+00 0 0 0
496 2 -2.5254059742609196e+00 -1.3830904886046449e+00 2.4384515339820925e+00 0 0 0
284 1 -2.1687231110998724e+00 -1.0075861996160392e-01 3.2140118215500344e+00 0 0 0
99 1 -1.6172154858623242e+00 -1.6747070830608555e+00 2.2933613073949468e+00 0 0 0
118 1 -1.6650088725619718e+00 -5.2222879858986171e-01 2.3833883352761984e+00 0 0 0
267 1 -1.6675825389027172e+00 -1.0668342425618138e+00 3.2260463648667255e+00 0 0 0
468 2 -1.0481358013621582e+00 -1.0094614311722054e+00 2.1736944017445903e+00 0 0 0
222 1 -7.5298858815874026e-01 -3.0013002283226653e-01 2.8782133661578171e+00 0 0 0
386 1 5.5731313179938147e-01 -1.9603718699268649e+00 2.3955441066732766e+00 0 0 0
92 1 -4.4932855330001076e-01 -1.7316443109771265e+00 2.4929926592912612e+00 0 0 0
495 2 -7.9920613987620914e-01 -1.1937474910945709e+00 3.1379906509154485e+00 0 0 0
462 2 -1.6014538062039663e-01 -8.6242323338072829e-02 1.9629229766532719e+00 0 0 0
108 1 9.0349661285082067e-02 -1.6790714775947551e+00 3.3665613787267383e+00 0 0 0
54 1 6.1445365060486493e-02 -8.3096908164646777e-01 2.7275769046395104e+00 0 0 0
151 1 -3.2985055233972775e+00 -6.5478834279126180e-02 1.1566971652155197e-01 0 0 0
74 1 8.3373762483862612e-01 -9.6441871447487260e-01 2.0771190785554161e+00 0 0 0
461 2 8.0614695980501572e-01 -1.3100552336960383e+00 2.9422879929071328e+00 0 0 0
23 1 1.0417570580606315e+00 -5.4447654575832094e-01 3.1952558409403684e+00 0 0 0
230 1 1.7308373606930152e+00 -2.6208320650014394e-01 2.3518006604896691e+00 0 0 0
128 1 2.0260381404609480e+00 -1.9772508501050143e-01 3.3953536354169755e+00 0 0 0
137 1 1.6448993390767532e+00 -1.3671380774582980e+00 2.7299841721319402e+00 0 0 0
116 1 3.2042761161974238e+00 -1.3957332902205957e+00 1.8241502997172963e+00 0 0 0
396 1 3.5689969845520850e+00 -1.2449620045767980e+00 3.0924722471843005e+00 0 0 0
388 1 2.1423114024451921e+00 -1.2136151854544961e+00 3.6548556573174285e+00 0 0 0
328 1 -2.1529546277093892e-01 -6.2732762437772571e-01 3.6617273808312878e+00 0 0 0
68 1 2.9826375365221893e+00 -1.7863505388331673e+00 3.7237483659996329e+00 0 0 0
100 1 -2.8733554340367560e+00 6.5819055035836938e-01 -3.0611388333438847e+00 0 0 0
130 1 -3.0447455021551870e+00 1.6345071607986701e+00 -2.6580392998505631e+00 0 0 0
406 2 -2.4023869050810189e+00 1.5190634071644982e+00 -3.2427192845619759e+00 0 0 0
214 1 -3.0056778458389561e+00 8.3150860035348129e-01 -1.9638636842770962e+00 0 0 0
459 2 -3.6558765189800209e+00 6.5596059441763932e-01 -2.5504888612634047e+00 0 0 0
139 1 -2.2084688286798770e+00 8.0426843114983021e-02 -2.2725579629304820e+00 0 0 0
219 1 -2.1080321937799860e+00 1.0920870475397042e+00 -2.3745514556628380e+00 0 0 0
171 1 -1.9610230120878172e+00 4.3034964178093155e-01 -3.2854631977896118e+00 0 0 0
173 1 -1.3491487049030422e+00 4.8869149213763963e-01 -2.1384234670492841e+00 0 0 0
385 1 -9.3668677158671720e-01 1.5467371108357628e+00 -2.5719747382003826e+00 0 0 0
31 1 -1.6010581366570493e+00 1.4662969714794940e+00 -3.3986926723083197e+00 0 0 0
237 1 -8.5990262672858564e-01 6.2262708533576550e-01 -3.1346507434129065e+00 0 0 0
477 2 -6.8886217414788287e-01 1.7392380434802646e+00 -3.4691101006464975e+00 0 0 0
286 1 -1.3618769148008303e-01 6.0541382378202879e-01 -2.4366556220197100e+00 0 0 0
47 1 2.8274546942969592e-01 1.2790655197774621e+00 -3.1055912843406541e+00 0 0 0
254 1 2.2600802154914079e-01 2.7539614092367348e-01 -3.3215794623333648e+00 0 0 0
416 2 4.9978286919481280e-01 1.0982666297356181e+00 -2.1407103334745248e+00 0 0 0
234 1 9.4796713864991833e-01 4.9558251527040981e-01 -2.5140446081391348e+00 0 0 0
221 1 1.8974204374236372e+00 7.2963285437346903e-01 -2.9354308779612608e+00 0 0 0
45 1 1.1874356740820939e+00 1.4811430241654753e+00 -2.5884648527342371e+00 0 0 0
163 1 2.0275001650760465e+00 2.2187429081204338e-01 -2.0799222715308403e+00 0 0 0
293 1 1.2665734539905955e+00 1.2100222092369615e+00 -3.5969411461932079e+00 0 0 0
64 1 2.1729308866203536e+00 1.6318137702567685e+00 -2.3886171851610736e+00 0 0 0
280 1 1.2165473478634465e+00 1.3110487385074024e-01 -3.5312549421167549e+00 0 0 0
117 1 2.2845122299075409e+00 1.4136614041236661e+00 -3.6556084776057567e+00 0 0 0
17 1 3.5271497414301631e+00 1.4122644604370163e+00 -2.1579490515368245e+00 0 0 0
263 1 3.5036467333000454e+00 1.1601969950812017e+00 -3.1599028286244808e+00 0 0 0
249 1 2.9783985453350685e+00 3.1887488655779955e-01 -2.5393229315658514e+00 0 0 0
274 1 2.7350185539367304e+00 4.6696372282388782e-01 -3.5195161885923762e+00 0 0 0
258 1 3.7229081544817335e+00 2.1683860889679918e-01 -3.3955652902575890e+00 0 0 0
425 2 -3.0121139878524401e+00 3.1435971075571825e+00 -2.9984044637980483e+00 0 0 0
217 1 -2.8762520989443359e+00 2.5662060380921647e+00 -2.2279754647721073e+00 0 0 0
24 1 -3.5596655540255280e+00 2.4115969786527622e+00 -3.1635777235591500e+00 0 0 0
303 1 -2.4836625723643628e+00 2.3340278407506436e+00 -3.3626095205096354e+00 0 0 0
428 2 -2.6395774100587346e+00 3.2275626872202041e+00 -1.8298748865096470e+00 0 0 0
374 1 -3.2219114975731880e+00 3.7129208085064223e+00 -2.2637373718920601e+00 0 0 0
245 1 -2.1284201382066792e+00 3.0713764625195945e+00 -2.8086780947281245e+00 0 0 0
160 1 -1.8614910955989099e+00 2.1126152214266947e+00 -2.4469310506995612e+00 0 0 0
16 1 -1.2484276558024783e+00 2.4460510111178269e+00 -3.4578492777358187e+00 0 0 0
149 1 -9.6777195344334344e-01 2.6114897253190161e+00 -2.3722793827490065e+00 0 0 0
427 2 -1.3243956824620784e+00 3.1821917574384564e+00 -2.9902943660052355e+00 0 0 0
199 1 -1.1735521110557618e+00 3.6090653922324436e+00 -2.1172168045233444e+00 0 0 0
203 1 4.0565971822870736e-02 1.8887328177551226e+00 -2.1951888416831400e+00 0 0 0
344 1 -1.9090682359914704e-01 2.4114043993282035e+00 -3.0617865595912517e+00 0 0 0
218 1 3.1299646720179375e-02 3.0229264051140872e+00 -2.1416324560886415e+00 0 0 0
38 1 4.7671902826469403e-01 3.2682509354385951e+00 -3.1195003361259470e+00 0 0 0
140 1 -5.1245290299348345e-01 3.5394014657393846e+00 -2.9228858604447470e+00 0 0 0
179 1 7.3855259971156173e-01 2.2669645904787354e+00 -3.4725232569125835e+00 0 0 0
394 1 8.5122929396186342e-01 2.5145645625478323e+00 -2.4715557941347885e+00 0 0 0
111 1 1.6984840750972943e+00 3.2038190144973950e+00 -2.6254079063268203e+00 0 0 0
138 1 1.7342222284310618e+00 2.2371347330252807e+00 -3.1175123923237238e+00 0 0 0
261 1 3.2252975652387668e+00 2.8525095516268641e+00 -1.1657592373755028e+00 0 0 0
313 1 3.0168341917660513e+00 2.9182030328617876e+00 -1.1350089356581546e-01 0 0 0
463 2 -3.7151612742793136e+00 2.2092387421681607e+00 -2.3243272626546738e+00 0 0 0
423 2 2.4034325603988678e+00 2.6367047540140351e+00 -2.5243960825878924e+00 0 0 0
90 1 3.4671811095504630e+00 3.0674998486560217e+00 -2.4493198945047108e+00 0 0 0
148 1 2.8742960756925413e+00 2.1061101876928765e+00 -3.0112481990522726e+00 0 0 0
377 1 2.6504410402750276e+00 3.1774499810531642e+00 -3.1903616418282441e+00 0 0 0
19 1 2.5205284906057179e+00 3.3335207159533637e+00 -1.9915321849295033e+00 0 0 0
251 1 2.9561756107882529e+00 2.2770722956184435e+00 -1.9423774757933943e+00 0 0 0
362 1 -2.5436994470890508e+00 9.0671454585040623e-01 -2.7236428379099370e-01 0 0 0
403 2 -2.8271588792793998e+00 1.0009233689008115e+00 -1.1484800193730476e+00 0 0 0
21 1 -3.0125193378796702e+00 1.8691481866504711e-01 -9.1926986373620567e-01 0 0 0
391 1 -2.4427893819749711e+00 1.7835668988650080e+00 -1.6495607459106481e+00 0 0 0
268 1 -3.0060753422474318e+00 1.7531043906061381e+00 -6.3827809798650703e-01 0 0 0
279 1 -3.6813547051076925e+00 1.2000301258652020e+00 -1.1689322007679670e+00 0 0 0
50 1 -2.1244455682199685e+00 6.5529013147721604e-01 -1.3779837014931784e+00 0 0 0
176 1 -1.8918978949415772e+00 1.5760913590320891e+00 -7.5446501569509949e-01 0 0 0
378 1 -1.1472638020432184e+00 7.6339718019759495e-01 -9.0348772702883484e-01 0 0 0
121 1 -1.4291427130826819e+00 1.5135088057308106e+00 -1.6804611583661511e+00 0 0 0
170 1 -8.3718754728951050e-01 1.6882188864001144e+00 -7.2369321488439797e-01 0 0 0
2 1 6.3655721696152623e-01 4.7990161628261996e-01 -1.4732226693985986e+00 0 0 0
164 1 -4.5363216339914930e-01 1.2198928008117891e+00 -1.6132586323029323e+00 0 0 0
13 1 -1.1382520657239203e-01 6.3900673204870162e-01 -7.1345948292627626e-01 0 0 0
447 2 2.6147517797221170e-01 1.4094708850900615e+00 -1.1858162579680436e+00 0 0 0
343 1 -5.4884821857456556e-01 1.2497702942247647e-01 -1.5229612220790927e+00 0 0 0
436 2 5.0322571926376347e-01 8.9494359684194991e-01 -8.1148753477799027e-02 0 0 0
345 1 2.9915217467848820e-01 1.7512519551498937e+00 -3.6823761581068054e-01 0 0 0
198 1 8.0934015966263695e-01 1.0993365195168812e-01 -4.6008936981318005e-01 0 0 0
275 1 1.5514883837664439e+00 1.6475728526812816e-01 -1.1607490190997101e+00 0 0 0
144 1 1.5766238884203123e+00 1.1205921106911565e+00 -1.7153524095638000e+00 0 0 0
358 1 1.1669161210821375e+00 1.1875765756011303e+00 -7.2693073416933396e-01 0 0 0
493 2 2.0324146420909543e+00 8.6616088042290307e-01 -9.6074018064672217e-01 0 0 0
3 1 1.8143472664080158e+00 5.0029778155060245e-01 -2.3639854975880925e-01 0 0 0
70 1 2.2341770238953078e+00 1.8059730948497850e+00 -1.0700894190848900e+00 0 0 0
481 2 1.9444528601104645e+00 1.4089618404796707e+00 -3.1721484906173436e-01 0 0 0
167 1 8.6691497010837371e-01 1.8347325387344386e+00 -1.5801781577545950e+00 0 0 0
277 1 -3.6189682260139739e+00 1.0050455165234828e+00 -1.0945910067225774e-01 0 0 0
418 2 2.6441715818936711e+00 4.3376901263091891e-02 -1.6871582884028369e-01 0 0 0
282 1 2.2593987066304155e+00 2.1398885186351397e+00 -1.0192389477797266e-01 0 0 0
119 1 3.4556402971473981e+00 2.3696159941834918e-01 -6.7415327659290381e-01 0 0 0
205 1 2.7330639269526351e+00 1.0616782987101325e+00 -1.5808738019851172e+00 0 0 0
5 1 2.7950704009284899e+00 1.0489607271322599e+00 -4.1750844841616103e-01 0 0 0
177 1 3.5778178913791190e+00 3.8858289341917890e-01 -1.7218281808221345e+00 0 0 0
216 1 3.3316180808313551e+00 1.9984045373311221e+00 -6.6911852182895326e-01 0 0 0
225 1 -3.5813199202541313e+00 3.4804189690020904e+00 -7.4391599592642776e-01 0 0 0
88 1 -3.5285229073101263e+00 2.1753997839978898e+00 -1.5465175705478178e+00 0 0 0
33 1 -2.7347905675854940e+00 2.7114055558185353e+00 -1.1024477104388919e+00 0 0 0
485 2 -3.4544580309413178e+00 3.0567626128110259e+00 -1.5538082354401692e+00 0 0 0
466 2 -3.4547333750343321e+00 2.6265107555627143e+00 -6.5715093873812680e-01 0 0 0
142 1 1.3152918068073993e+00 2.2014536004458094e+00 -7.3888292410851597e-01 0 0 0
115 1 -2.1668172917142261e+00 3.3931810246035488e+00 -4.3815726919414111e-01 0 0 0
48 1 -9.7881750932757650e-01 3.4629678361809564e+00 -6.0722706341868460e-01 0 0 0