LAMMPS (28 Feb 2012)
echo none
  triclinic box = (-3.7345 -3.7345 -3.7345) to (3.7345 3.7345 3.7345) with tilt (-8.88178e-16 0 0)
  1 by 1 by 1 MPI processor grid
  500 atoms
  500 velocities
WARNING: No fixes defined, atoms won't move (verlet.cpp:52)
Memory usage per processor = 1.7156 Mbytes
Step Temp E_pair E_mol TotEng Press 
       0   0.49133947   -7.6547892            0   -6.9192541  -0.91828237 
Loop time of 9.53674e-07 on 1 procs for 0 steps with 500 atoms

Pair  time (%) = 0 (0)
Neigh time (%) = 0 (0)
Comm  time (%) = 0 (0)
Outpt time (%) = 0 (0)
Other time (%) = 9.53674e-07 (100)

Nlocal:    500 ave 500 max 500 min
Histogram: 1 0 0 0 0 0 0 0 0 0
Nghost:    2182 ave 2182 max 2182 min
Histogram: 1 0 0 0 0 0 0 0 0 0
Neighs:    22891 ave 22891 max 22891 min
Histogram: 1 0 0 0 0 0 0 0 0 0

Total # of neighbors = 22891
Ave neighs/atom = 45.782
Neighbor list builds = 0
Dangerous builds = 0
  500 settings made for image
  triclinic box = (-3.7345 -3.7345 -3.7345) to (3.7345 3.7345 3.7345) with tilt (-8.88178e-16 0 0)
WARNING: Resetting reneighboring criteria during minimization (min.cpp:166)
Memory usage per processor = 2.43658 Mbytes
Step Temp E_pair E_mol TotEng Press 
       0   0.49133947   -7.6547892            0   -6.9192541  -0.91828237 
       1   0.49133947   -7.6547892            0   -6.9192541  -0.91828237 
Loop time of 0.010417 on 1 procs for 1 steps with 500 atoms

Minimization stats:
  Stopping criterion = linesearch alpha is zero
  Energy initial, next-to-last, final = 
        -7.65478924881     -7.65478924881     -7.65478924881
  Force two-norm initial, final = 0.0762375 0.0762375
  Force max component initial, final = 0.0148795 0.0148795
  Final line search alpha, max atom move = 0.000976562 1.45308e-05
  Iterations, force evaluations = 1 11

Pair  time (%) = 0.00995564 (95.5713)
Neigh time (%) = 0 (0)
Comm  time (%) = 0.000299692 (2.87696)
Outpt time (%) = 0 (0)
Other time (%) = 0.000161648 (1.55177)

Nlocal:    500 ave 500 max 500 min
Histogram: 1 0 0 0 0 0 0 0 0 0
Nghost:    2182 ave 2182 max 2182 min
Histogram: 1 0 0 0 0 0 0 0 0 0
Neighs:    22891 ave 22891 max 22891 min
Histogram: 1 0 0 0 0 0 0 0 0 0

Total # of neighbors = 22891
Ave neighs/atom = 45.782
Neighbor list builds = 0
Dangerous builds = 0
WARNING: No fixes defined, atoms won't move (verlet.cpp:52)
Memory usage per processor = 1.7156 Mbytes
mystep PotEng Xy Xz Yz Lx 
           0   -7.6547892 -8.8817842e-16            0            0        7.469 
Loop time of 0 on 1 procs for 0 steps with 500 atoms

Pair  time (%) = 0 (0)
Neigh time (%) = 0 (0)
Comm  time (%) = 0 (0)
Outpt time (%) = 0 (0)
Other time (%) = 0 (0)

Nlocal:    500 ave 500 max 500 min
Histogram: 1 0 0 0 0 0 0 0 0 0
Nghost:    2182 ave 2182 max 2182 min
Histogram: 1 0 0 0 0 0 0 0 0 0
Neighs:    22891 ave 22891 max 22891 min
Histogram: 1 0 0 0 0 0 0 0 0 0

Total # of neighbors = 22891
Ave neighs/atom = 45.782
Neighbor list builds = 0
Dangerous builds = 0
WARNING: Resetting reneighboring criteria during minimization (min.cpp:166)
Memory usage per processor = 2.43658 Mbytes
mystep PotEng Xy Xz Yz Lx 
           0   -7.6547892 -8.8817842e-16            0            0        7.469 
           0   -7.6547892 -8.8817842e-16            0            0        7.469 
Loop time of 0.0104082 on 1 procs for 1 steps with 500 atoms

Minimization stats:
  Stopping criterion = linesearch alpha is zero
  Energy initial, next-to-last, final = 
        -7.65478924881     -7.65478924881     -7.65478924881
  Force two-norm initial, final = 0.0762375 0.0762375
  Force max component initial, final = 0.0148795 0.0148795
  Final line search alpha, max atom move = 0.000976562 1.45308e-05
  Iterations, force evaluations = 1 11

Pair  time (%) = 0.00995255 (95.6225)
Neigh time (%) = 0 (0)
Comm  time (%) = 0.000300884 (2.89085)
Outpt time (%) = 0 (0)
Other time (%) = 0.000154734 (1.48666)

Nlocal:    500 ave 500 max 500 min
Histogram: 1 0 0 0 0 0 0 0 0 0
Nghost:    2182 ave 2182 max 2182 min
Histogram: 1 0 0 0 0 0 0 0 0 0
Neighs:    22891 ave 22891 max 22891 min
Histogram: 1 0 0 0 0 0 0 0 0 0

Total # of neighbors = 22891
Ave neighs/atom = 45.782
Neighbor list builds = 0
Dangerous builds = 0
Memory usage per processor = 1.7156 Mbytes
mystep PotEng Xy Xz Yz Lx 
           1   -7.6547892 -8.8817842e-16            0            0        7.469 
           1   -7.6547892     0.007469            0            0        7.469 
Loop time of 0.000880003 on 1 procs for 1 steps with 500 atoms

Pair  time (%) = 0.000825882 (93.8499)
Neigh time (%) = 0 (0)
Comm  time (%) = 2.59876e-05 (2.95313)
Outpt time (%) = 1.09673e-05 (1.24627)
Other time (%) = 1.71661e-05 (1.95069)

Nlocal:    500 ave 500 max 500 min
Histogram: 1 0 0 0 0 0 0 0 0 0
Nghost:    2182 ave 2182 max 2182 min
Histogram: 1 0 0 0 0 0 0 0 0 0
Neighs:    22891 ave 22891 max 22891 min
Histogram: 1 0 0 0 0 0 0 0 0 0

Total # of neighbors = 22891
Ave neighs/atom = 45.782
Neighbor list builds = 0
Dangerous builds = 0
WARNING: No fixes defined, atoms won't move (verlet.cpp:52)
Memory usage per processor = 1.7156 Mbytes
mystep PotEng Xy Xz Yz Lx 
           1   -7.6547483     0.007469            0            0        7.469 
Loop time of 9.53674e-07 on 1 procs for 0 steps with 500 atoms

Pair  time (%) = 0 (0)
Neigh time (%) = 0 (0)
Comm  time (%) = 0 (0)
Outpt time (%) = 0 (0)
Other time (%) = 9.53674e-07 (100)

Nlocal:    500 ave 500 max 500 min
Histogram: 1 0 0 0 0 0 0 0 0 0
Nghost:    2182 ave 2182 max 2182 min
Histogram: 1 0 0 0 0 0 0 0 0 0
Neighs:    22892 ave 22892 max 22892 min
Histogram: 1 0 0 0 0 0 0 0 0 0

Total # of neighbors = 22892
Ave neighs/atom = 45.784
Neighbor list builds = 0
Dangerous builds = 0
WARNING: Resetting reneighboring criteria during minimization (min.cpp:166)
Memory usage per processor = 2.43658 Mbytes
mystep PotEng Xy Xz Yz Lx 
           2   -7.6547483     0.007469            0            0        7.469 
           2   -7.6547601     0.007469            0            0        7.469 
Loop time of 0.136772 on 1 procs for 16 steps with 500 atoms

Minimization stats:
  Stopping criterion = energy tolerance
  Energy initial, next-to-last, final = 
        -7.65474833155      -7.6547600546     -7.65476011524
  Force two-norm initial, final = 1.41295 0.175882
  Force max component initial, final = 0.161668 0.0261252
  Final line search alpha, max atom move = 0.00195312 5.10258e-05
  Iterations, force evaluations = 16 157

Pair  time (%) = 0.130692 (95.5544)
Neigh time (%) = 0 (0)
Comm  time (%) = 0.00393057 (2.87381)
Outpt time (%) = 0 (0)
Other time (%) = 0.00214982 (1.57183)

Nlocal:    500 ave 500 max 500 min
Histogram: 1 0 0 0 0 0 0 0 0 0
Nghost:    2182 ave 2182 max 2182 min
Histogram: 1 0 0 0 0 0 0 0 0 0
Neighs:    22892 ave 22892 max 22892 min
Histogram: 1 0 0 0 0 0 0 0 0 0

Total # of neighbors = 22892
Ave neighs/atom = 45.784
Neighbor list builds = 0
Dangerous builds = 0
WARNING: No fixes defined, atoms won't move (verlet.cpp:52)
Memory usage per processor = 1.7156 Mbytes
mystep PotEng Xy Xz Yz Lx 
           2   -7.6547601     0.007469            0            0        7.469 
Loop time of 1.19209e-06 on 1 procs for 0 steps with 500 atoms

Pair  time (%) = 0 (0)
Neigh time (%) = 0 (0)
Comm  time (%) = 0 (0)
Outpt time (%) = 0 (0)
Other time (%) = 1.19209e-06 (100)

Nlocal:    500 ave 500 max 500 min
Histogram: 1 0 0 0 0 0 0 0 0 0
Nghost:    2182 ave 2182 max 2182 min
Histogram: 1 0 0 0 0 0 0 0 0 0
Neighs:    22886 ave 22886 max 22886 min
Histogram: 1 0 0 0 0 0 0 0 0 0

Total # of neighbors = 22886
Ave neighs/atom = 45.772
Neighbor list builds = 0
Dangerous builds = 0
Memory usage per processor = 1.7156 Mbytes
mystep PotEng Xy Xz Yz Lx 
           3   -7.6547601     0.007469            0            0        7.469 
           3   -7.6547601     0.014938            0            0        7.469 
Loop time of 0.000874043 on 1 procs for 1 steps with 500 atoms

Pair  time (%) = 0.00082612 (94.5172)
Neigh time (%) = 0 (0)
Comm  time (%) = 2.57492e-05 (2.94599)
Outpt time (%) = 8.10623e-06 (0.927441)
Other time (%) = 1.40667e-05 (1.60938)

Nlocal:    500 ave 500 max 500 min
Histogram: 1 0 0 0 0 0 0 0 0 0
Nghost:    2182 ave 2182 max 2182 min
Histogram: 1 0 0 0 0 0 0 0 0 0
Neighs:    22886 ave 22886 max 22886 min
Histogram: 1 0 0 0 0 0 0 0 0 0

Total # of neighbors = 22886
Ave neighs/atom = 45.772
Neighbor list builds = 0
Dangerous builds = 0
WARNING: No fixes defined, atoms won't move (verlet.cpp:52)
Memory usage per processor = 1.7156 Mbytes
mystep PotEng Xy Xz Yz Lx 
           3   -7.6547043     0.014938            0            0        7.469 
Loop time of 0 on 1 procs for 0 steps with 500 atoms

Pair  time (%) = 0 (0)
Neigh time (%) = 0 (0)
Comm  time (%) = 0 (0)
Outpt time (%) = 0 (0)
Other time (%) = 0 (0)

Nlocal:    500 ave 500 max 500 min
Histogram: 1 0 0 0 0 0 0 0 0 0
Nghost:    2182 ave 2182 max 2182 min
Histogram: 1 0 0 0 0 0 0 0 0 0
Neighs:    22889 ave 22889 max 22889 min
Histogram: 1 0 0 0 0 0 0 0 0 0

Total # of neighbors = 22889
Ave neighs/atom = 45.778
Neighbor list builds = 0
Dangerous builds = 0
WARNING: Resetting reneighboring criteria during minimization (min.cpp:166)
Memory usage per processor = 2.43658 Mbytes
mystep PotEng Xy Xz Yz Lx 
           4   -7.6547043     0.014938            0            0        7.469 
           4   -7.6548384     0.014938            0            0        7.469 
Loop time of 1.24594 on 1 procs for 163 steps with 500 atoms

Minimization stats:
  Stopping criterion = energy tolerance
  Energy initial, next-to-last, final = 
        -7.65470430961      -7.6548383332     -7.65483840795
  Force two-norm initial, final = 1.37047 0.129484
  Force max component initial, final = 0.168688 0.0369057
  Final line search alpha, max atom move = 0.00195312 7.20814e-05
  Iterations, force evaluations = 163 1429

Pair  time (%) = 1.18287 (94.9385)
Neigh time (%) = 0.0070169 (0.563182)
Comm  time (%) = 0.0360839 (2.89613)
Outpt time (%) = 0 (0)
Other time (%) = 0.0199623 (1.60219)

Nlocal:    500 ave 500 max 500 min
Histogram: 1 0 0 0 0 0 0 0 0 0
Nghost:    2190 ave 2190 max 2190 min
Histogram: 1 0 0 0 0 0 0 0 0 0
Neighs:    22909 ave 22909 max 22909 min
Histogram: 1 0 0 0 0 0 0 0 0 0

Total # of neighbors = 22909
Ave neighs/atom = 45.818
Neighbor list builds = 4
Dangerous builds = 0
WARNING: No fixes defined, atoms won't move (verlet.cpp:52)
Memory usage per processor = 1.7156 Mbytes
mystep PotEng Xy Xz Yz Lx 
           4   -7.6548384     0.014938            0            0        7.469 
Loop time of 0 on 1 procs for 0 steps with 500 atoms

Pair  time (%) = 0 (0)
Neigh time (%) = 0 (0)
Comm  time (%) = 0 (0)
Outpt time (%) = 0 (0)
Other time (%) = 0 (0)

Nlocal:    500 ave 500 max 500 min
Histogram: 1 0 0 0 0 0 0 0 0 0
Nghost:    2182 ave 2182 max 2182 min
Histogram: 1 0 0 0 0 0 0 0 0 0
Neighs:    22913 ave 22913 max 22913 min
Histogram: 1 0 0 0 0 0 0 0 0 0

Total # of neighbors = 22913
Ave neighs/atom = 45.826
Neighbor list builds = 0
Dangerous builds = 0
Memory usage per processor = 1.7156 Mbytes
mystep PotEng Xy Xz Yz Lx 
           5   -7.6548384     0.014938            0            0        7.469 
           5   -7.6548384     0.022407            0            0        7.469 
Loop time of 0.00087595 on 1 procs for 1 steps with 500 atoms

Pair  time (%) = 0.00082612 (94.3114)
Neigh time (%) = 0 (0)
Comm  time (%) = 2.47955e-05 (2.8307)
Outpt time (%) = 1.00136e-05 (1.14317)
Other time (%) = 1.50204e-05 (1.71475)

Nlocal:    500 ave 500 max 500 min
Histogram: 1 0 0 0 0 0 0 0 0 0
Nghost:    2182 ave 2182 max 2182 min
Histogram: 1 0 0 0 0 0 0 0 0 0
Neighs:    22913 ave 22913 max 22913 min
Histogram: 1 0 0 0 0 0 0 0 0 0

Total # of neighbors = 22913
Ave neighs/atom = 45.826
Neighbor list builds = 0
Dangerous builds = 0
WARNING: No fixes defined, atoms won't move (verlet.cpp:52)
Memory usage per processor = 1.7156 Mbytes
mystep PotEng Xy Xz Yz Lx 
           5   -7.6547998     0.022407            0            0        7.469 
Loop time of 9.53674e-07 on 1 procs for 0 steps with 500 atoms

Pair  time (%) = 0 (0)
Neigh time (%) = 0 (0)
Comm  time (%) = 0 (0)
Outpt time (%) = 0 (0)
Other time (%) = 9.53674e-07 (100)

Nlocal:    500 ave 500 max 500 min
Histogram: 1 0 0 0 0 0 0 0 0 0
Nghost:    2182 ave 2182 max 2182 min
Histogram: 1 0 0 0 0 0 0 0 0 0
Neighs:    22912 ave 22912 max 22912 min
Histogram: 1 0 0 0 0 0 0 0 0 0

Total # of neighbors = 22912
Ave neighs/atom = 45.824
Neighbor list builds = 0
Dangerous builds = 0
WARNING: Resetting reneighboring criteria during minimization (min.cpp:166)
Memory usage per processor = 2.43658 Mbytes
mystep PotEng Xy Xz Yz Lx 
           6   -7.6547998     0.022407            0            0        7.469 
           6   -7.6561653     0.022407            0            0        7.469 
Loop time of 1.23751 on 1 procs for 173 steps with 500 atoms

Minimization stats:
  Stopping criterion = energy tolerance
  Energy initial, next-to-last, final = 
        -7.65479980477     -7.65616527711     -7.65616532172
  Force two-norm initial, final = 1.4067 0.13874
  Force max component initial, final = 0.16538 0.0500869
  Final line search alpha, max atom move = 0.00195312 9.78259e-05
  Iterations, force evaluations = 173 1391

Pair  time (%) = 1.15109 (93.0167)
Neigh time (%) = 0.0297723 (2.40582)
Comm  time (%) = 0.0367095 (2.9664)
Outpt time (%) = 0 (0)
Other time (%) = 0.0199368 (1.61104)

Nlocal:    500 ave 500 max 500 min
Histogram: 1 0 0 0 0 0 0 0 0 0
Nghost:    2182 ave 2182 max 2182 min
Histogram: 1 0 0 0 0 0 0 0 0 0
Neighs:    22914 ave 22914 max 22914 min
Histogram: 1 0 0 0 0 0 0 0 0 0

Total # of neighbors = 22914
Ave neighs/atom = 45.828
Neighbor list builds = 17
Dangerous builds = 0
WARNING: No fixes defined, atoms won't move (verlet.cpp:52)
Memory usage per processor = 1.7156 Mbytes
mystep PotEng Xy Xz Yz Lx 
           6   -7.6561653     0.022407            0            0        7.469 
Loop time of 0 on 1 procs for 0 steps with 500 atoms

Pair  time (%) = 0 (0)
Neigh time (%) = 0 (0)
Comm  time (%) = 0 (0)
Outpt time (%) = 0 (0)
Other time (%) = 0 (0)

Nlocal:    500 ave 500 max 500 min
Histogram: 1 0 0 0 0 0 0 0 0 0
Nghost:    2174 ave 2174 max 2174 min
Histogram: 1 0 0 0 0 0 0 0 0 0
Neighs:    22909 ave 22909 max 22909 min
Histogram: 1 0 0 0 0 0 0 0 0 0

Total # of neighbors = 22909
Ave neighs/atom = 45.818
Neighbor list builds = 0
Dangerous builds = 0
Memory usage per processor = 1.7156 Mbytes
mystep PotEng Xy Xz Yz Lx 
           7   -7.6561653     0.022407            0            0        7.469 
           7   -7.6561653     0.029876            0            0        7.469 
Loop time of 0.000874043 on 1 procs for 1 steps with 500 atoms

Pair  time (%) = 0.00082612 (94.5172)
Neigh time (%) = 0 (0)
Comm  time (%) = 2.71797e-05 (3.10966)
Outpt time (%) = 9.05991e-06 (1.03655)
Other time (%) = 1.16825e-05 (1.33661)

Nlocal:    500 ave 500 max 500 min
Histogram: 1 0 0 0 0 0 0 0 0 0
Nghost:    2174 ave 2174 max 2174 min
Histogram: 1 0 0 0 0 0 0 0 0 0
Neighs:    22909 ave 22909 max 22909 min
Histogram: 1 0 0 0 0 0 0 0 0 0

Total # of neighbors = 22909
Ave neighs/atom = 45.818
Neighbor list builds = 0
Dangerous builds = 0
WARNING: No fixes defined, atoms won't move (verlet.cpp:52)
Memory usage per processor = 1.7156 Mbytes
mystep PotEng Xy Xz Yz Lx 
           7   -7.6561464     0.029876            0            0        7.469 
Loop time of 0 on 1 procs for 0 steps with 500 atoms

Pair  time (%) = 0 (0)
Neigh time (%) = 0 (0)
Comm  time (%) = 0 (0)
Outpt time (%) = 0 (0)
Other time (%) = 0 (0)

Nlocal:    500 ave 500 max 500 min
Histogram: 1 0 0 0 0 0 0 0 0 0
Nghost:    2174 ave 2174 max 2174 min
Histogram: 1 0 0 0 0 0 0 0 0 0
Neighs:    22908 ave 22908 max 22908 min
Histogram: 1 0 0 0 0 0 0 0 0 0

Total # of neighbors = 22908
Ave neighs/atom = 45.816
Neighbor list builds = 0
Dangerous builds = 0
WARNING: Resetting reneighboring criteria during minimization (min.cpp:166)
Memory usage per processor = 2.43658 Mbytes
mystep PotEng Xy Xz Yz Lx 
           8   -7.6561464     0.029876            0            0        7.469 
           8   -7.6561589     0.029876            0            0        7.469 
Loop time of 0.149679 on 1 procs for 18 steps with 500 atoms

Minimization stats:
  Stopping criterion = energy tolerance
  Energy initial, next-to-last, final = 
        -7.65614640075      -7.6561588222     -7.65615889607
  Force two-norm initial, final = 1.40445 0.161136
  Force max component initial, final = 0.143805 0.0384652
  Final line search alpha, max atom move = 0.00113419 4.36268e-05
  Iterations, force evaluations = 18 172

Pair  time (%) = 0.143041 (95.5651)
Neigh time (%) = 0 (0)
Comm  time (%) = 0.00427365 (2.85521)
Outpt time (%) = 0 (0)
Other time (%) = 0.0023644 (1.57965)

Nlocal:    500 ave 500 max 500 min
Histogram: 1 0 0 0 0 0 0 0 0 0
Nghost:    2174 ave 2174 max 2174 min
Histogram: 1 0 0 0 0 0 0 0 0 0
Neighs:    22908 ave 22908 max 22908 min
Histogram: 1 0 0 0 0 0 0 0 0 0

Total # of neighbors = 22908
Ave neighs/atom = 45.816
Neighbor list builds = 0
Dangerous builds = 0
WARNING: No fixes defined, atoms won't move (verlet.cpp:52)
Memory usage per processor = 1.7156 Mbytes
mystep PotEng Xy Xz Yz Lx 
           8   -7.6561589     0.029876            0            0        7.469 
Loop time of 0 on 1 procs for 0 steps with 500 atoms

Pair  time (%) = 0 (0)
Neigh time (%) = 0 (0)
Comm  time (%) = 0 (0)
Outpt time (%) = 0 (0)
Other time (%) = 0 (0)

Nlocal:    500 ave 500 max 500 min
Histogram: 1 0 0 0 0 0 0 0 0 0
Nghost:    2174 ave 2174 max 2174 min
Histogram: 1 0 0 0 0 0 0 0 0 0
Neighs:    22907 ave 22907 max 22907 min
Histogram: 1 0 0 0 0 0 0 0 0 0

Total # of neighbors = 22907
Ave neighs/atom = 45.814
Neighbor list builds = 0
Dangerous builds = 0
Memory usage per processor = 1.7156 Mbytes
mystep PotEng Xy Xz Yz Lx 
           9   -7.6561589     0.029876            0            0        7.469 
           9   -7.6561589     0.037345            0            0        7.469 
Loop time of 0.000878096 on 1 procs for 1 steps with 500 atoms

Pair  time (%) = 0.000825882 (94.0538)
Neigh time (%) = 0 (0)
Comm  time (%) = 2.59876e-05 (2.95954)
Outpt time (%) = 9.05991e-06 (1.03177)
Other time (%) = 1.71661e-05 (1.95493)

Nlocal:    500 ave 500 max 500 min
Histogram: 1 0 0 0 0 0 0 0 0 0
Nghost:    2174 ave 2174 max 2174 min
Histogram: 1 0 0 0 0 0 0 0 0 0
Neighs:    22907 ave 22907 max 22907 min
Histogram: 1 0 0 0 0 0 0 0 0 0

Total # of neighbors = 22907
Ave neighs/atom = 45.814
Neighbor list builds = 0
Dangerous builds = 0
WARNING: No fixes defined, atoms won't move (verlet.cpp:52)
Memory usage per processor = 1.7156 Mbytes
mystep PotEng Xy Xz Yz Lx 
           9   -7.6561269     0.037345            0            0        7.469 
Loop time of 0 on 1 procs for 0 steps with 500 atoms

Pair  time (%) = 0 (0)
Neigh time (%) = 0 (0)
Comm  time (%) = 0 (0)
Outpt time (%) = 0 (0)
Other time (%) = 0 (0)

Nlocal:    500 ave 500 max 500 min
Histogram: 1 0 0 0 0 0 0 0 0 0
Nghost:    2174 ave 2174 max 2174 min
Histogram: 1 0 0 0 0 0 0 0 0 0
Neighs:    22903 ave 22903 max 22903 min
Histogram: 1 0 0 0 0 0 0 0 0 0

Total # of neighbors = 22903
Ave neighs/atom = 45.806
Neighbor list builds = 0
Dangerous builds = 0
WARNING: Resetting reneighboring criteria during minimization (min.cpp:166)
Memory usage per processor = 2.43658 Mbytes
mystep PotEng Xy Xz Yz Lx 
          10   -7.6561269     0.037345            0            0        7.469 
          10   -7.6561436     0.037345            0            0        7.469 
Loop time of 0.189406 on 1 procs for 23 steps with 500 atoms

Minimization stats:
  Stopping criterion = energy tolerance
  Energy initial, next-to-last, final = 
        -7.65612694501     -7.65614351747     -7.65614357269
  Force two-norm initial, final = 1.43165 0.112553
  Force max component initial, final = 0.153059 0.0190559
  Final line search alpha, max atom move = 0.00195312 3.72186e-05
  Iterations, force evaluations = 23 218

Pair  time (%) = 0.180977 (95.5499)
Neigh time (%) = 0 (0)
Comm  time (%) = 0.0054245 (2.86395)
Outpt time (%) = 0 (0)
Other time (%) = 0.00300431 (1.58618)

Nlocal:    500 ave 500 max 500 min
Histogram: 1 0 0 0 0 0 0 0 0 0
Nghost:    2174 ave 2174 max 2174 min
Histogram: 1 0 0 0 0 0 0 0 0 0
Neighs:    22903 ave 22903 max 22903 min
Histogram: 1 0 0 0 0 0 0 0 0 0

Total # of neighbors = 22903
Ave neighs/atom = 45.806
Neighbor list builds = 0
Dangerous builds = 0
WARNING: No fixes defined, atoms won't move (verlet.cpp:52)
Memory usage per processor = 1.7156 Mbytes
mystep PotEng Xy Xz Yz Lx 
          10   -7.6561436     0.037345            0            0        7.469 
Loop time of 0 on 1 procs for 0 steps with 500 atoms

Pair  time (%) = 0 (0)
Neigh time (%) = 0 (0)
Comm  time (%) = 0 (0)
Outpt time (%) = 0 (0)
Other time (%) = 0 (0)

Nlocal:    500 ave 500 max 500 min
Histogram: 1 0 0 0 0 0 0 0 0 0
Nghost:    2174 ave 2174 max 2174 min
Histogram: 1 0 0 0 0 0 0 0 0 0
Neighs:    22911 ave 22911 max 22911 min
Histogram: 1 0 0 0 0 0 0 0 0 0

Total # of neighbors = 22911
Ave neighs/atom = 45.822
Neighbor list builds = 0
Dangerous builds = 0
Memory usage per processor = 1.7156 Mbytes
mystep PotEng Xy Xz Yz Lx 
          11   -7.6561436     0.037345            0            0        7.469 
          11   -7.6561436     0.044814            0            0        7.469 
Loop time of 0.000874043 on 1 procs for 1 steps with 500 atoms

Pair  time (%) = 0.000827074 (94.6263)
Neigh time (%) = 0 (0)
Comm  time (%) = 2.52724e-05 (2.89143)
Outpt time (%) = 1.00136e-05 (1.14566)
Other time (%) = 1.16825e-05 (1.33661)

Nlocal:    500 ave 500 max 500 min
Histogram: 1 0 0 0 0 0 0 0 0 0
Nghost:    2174 ave 2174 max 2174 min
Histogram: 1 0 0 0 0 0 0 0 0 0
Neighs:    22911 ave 22911 max 22911 min
Histogram: 1 0 0 0 0 0 0 0 0 0

Total # of neighbors = 22911
Ave neighs/atom = 45.822
Neighbor list builds = 0
Dangerous builds = 0
WARNING: No fixes defined, atoms won't move (verlet.cpp:52)
Memory usage per processor = 1.7156 Mbytes
mystep PotEng Xy Xz Yz Lx 
          11   -7.6561024     0.044814            0            0        7.469 
Loop time of 9.53674e-07 on 1 procs for 0 steps with 500 atoms

Pair  time (%) = 0 (0)
Neigh time (%) = 0 (0)
Comm  time (%) = 0 (0)
Outpt time (%) = 0 (0)
Other time (%) = 9.53674e-07 (100)

Nlocal:    500 ave 500 max 500 min
Histogram: 1 0 0 0 0 0 0 0 0 0
Nghost:    2174 ave 2174 max 2174 min
Histogram: 1 0 0 0 0 0 0 0 0 0
Neighs:    22910 ave 22910 max 22910 min
Histogram: 1 0 0 0 0 0 0 0 0 0

Total # of neighbors = 22910
Ave neighs/atom = 45.82
Neighbor list builds = 0
Dangerous builds = 0
WARNING: Resetting reneighboring criteria during minimization (min.cpp:166)
Memory usage per processor = 2.43658 Mbytes
mystep PotEng Xy Xz Yz Lx 
          12   -7.6561024     0.044814            0            0        7.469 
          12   -7.6561202     0.044814            0            0        7.469 
Loop time of 0.299547 on 1 procs for 36 steps with 500 atoms

Minimization stats:
  Stopping criterion = energy tolerance
  Energy initial, next-to-last, final = 
        -7.65610236632     -7.65612017622     -7.65612024603
  Force two-norm initial, final = 1.41624 0.250638
  Force max component initial, final = 0.139135 0.100551
  Final line search alpha, max atom move = 0.00390625 0.000392779
  Iterations, force evaluations = 36 345

Pair  time (%) = 0.286251 (95.5612)
Neigh time (%) = 0 (0)
Comm  time (%) = 0.00858378 (2.86559)
Outpt time (%) = 0 (0)
Other time (%) = 0.00471258 (1.57324)

Nlocal:    500 ave 500 max 500 min
Histogram: 1 0 0 0 0 0 0 0 0 0
Nghost:    2174 ave 2174 max 2174 min
Histogram: 1 0 0 0 0 0 0 0 0 0
Neighs:    22910 ave 22910 max 22910 min
Histogram: 1 0 0 0 0 0 0 0 0 0

Total # of neighbors = 22910
Ave neighs/atom = 45.82
Neighbor list builds = 0
Dangerous builds = 0
WARNING: No fixes defined, atoms won't move (verlet.cpp:52)
Memory usage per processor = 1.7156 Mbytes
mystep PotEng Xy Xz Yz Lx 
          12   -7.6561202     0.044814            0            0        7.469 
Loop time of 0 on 1 procs for 0 steps with 500 atoms

Pair  time (%) = 0 (0)
Neigh time (%) = 0 (0)
Comm  time (%) = 0 (0)
Outpt time (%) = 0 (0)
Other time (%) = 0 (0)

Nlocal:    500 ave 500 max 500 min
Histogram: 1 0 0 0 0 0 0 0 0 0
Nghost:    2174 ave 2174 max 2174 min
Histogram: 1 0 0 0 0 0 0 0 0 0
Neighs:    22909 ave 22909 max 22909 min
Histogram: 1 0 0 0 0 0 0 0 0 0

Total # of neighbors = 22909
Ave neighs/atom = 45.818
Neighbor list builds = 0
Dangerous builds = 0
Memory usage per processor = 1.7156 Mbytes
mystep PotEng Xy Xz Yz Lx 
          13   -7.6561202     0.044814            0            0        7.469 
          13   -7.6561202     0.052283            0            0        7.469 
Loop time of 0.000874996 on 1 procs for 1 steps with 500 atoms

Pair  time (%) = 0.00082612 (94.4142)
Neigh time (%) = 0 (0)
Comm  time (%) = 2.57492e-05 (2.94278)
Outpt time (%) = 9.05991e-06 (1.03542)
Other time (%) = 1.40667e-05 (1.60763)

Nlocal:    500 ave 500 max 500 min
Histogram: 1 0 0 0 0 0 0 0 0 0
Nghost:    2174 ave 2174 max 2174 min
Histogram: 1 0 0 0 0 0 0 0 0 0
Neighs:    22909 ave 22909 max 22909 min
Histogram: 1 0 0 0 0 0 0 0 0 0

Total # of neighbors = 22909
Ave neighs/atom = 45.818
Neighbor list builds = 0
Dangerous builds = 0
WARNING: No fixes defined, atoms won't move (verlet.cpp:52)
Memory usage per processor = 1.7156 Mbytes
mystep PotEng Xy Xz Yz Lx 
          13   -7.6560698     0.052283            0            0        7.469 
Loop time of 0 on 1 procs for 0 steps with 500 atoms

Pair  time (%) = 0 (0)
Neigh time (%) = 0 (0)
Comm  time (%) = 0 (0)
Outpt time (%) = 0 (0)
Other time (%) = 0 (0)

Nlocal:    500 ave 500 max 500 min
Histogram: 1 0 0 0 0 0 0 0 0 0
Nghost:    2174 ave 2174 max 2174 min
Histogram: 1 0 0 0 0 0 0 0 0 0
Neighs:    22911 ave 22911 max 22911 min
Histogram: 1 0 0 0 0 0 0 0 0 0

Total # of neighbors = 22911
Ave neighs/atom = 45.822
Neighbor list builds = 0
Dangerous builds = 0
WARNING: Resetting reneighboring criteria during minimization (min.cpp:166)
Memory usage per processor = 2.43658 Mbytes
mystep PotEng Xy Xz Yz Lx 
          14   -7.6560698     0.052283            0            0        7.469 
          14    -7.656088     0.052283            0            0        7.469 
Loop time of 0.189484 on 1 procs for 23 steps with 500 atoms

Minimization stats:
  Stopping criterion = energy tolerance
  Energy initial, next-to-last, final = 
        -7.65606982238     -7.65608790343     -7.65608797706
  Force two-norm initial, final = 1.41946 0.165776
  Force max component initial, final = 0.147645 0.0405856
  Final line search alpha, max atom move = 0.00195312 7.92687e-05
  Iterations, force evaluations = 23 218

Pair  time (%) = 0.181038 (95.5425)
Neigh time (%) = 0 (0)
Comm  time (%) = 0.00544143 (2.87171)
Outpt time (%) = 0 (0)
Other time (%) = 0.00300479 (1.58577)

Nlocal:    500 ave 500 max 500 min
Histogram: 1 0 0 0 0 0 0 0 0 0
Nghost:    2174 ave 2174 max 2174 min
Histogram: 1 0 0 0 0 0 0 0 0 0
Neighs:    22911 ave 22911 max 22911 min
Histogram: 1 0 0 0 0 0 0 0 0 0

Total # of neighbors = 22911
Ave neighs/atom = 45.822
Neighbor list builds = 0
Dangerous builds = 0
WARNING: No fixes defined, atoms won't move (verlet.cpp:52)
Memory usage per processor = 1.7156 Mbytes
mystep PotEng Xy Xz Yz Lx 
          14    -7.656088     0.052283            0            0        7.469 
Loop time of 0 on 1 procs for 0 steps with 500 atoms

Pair  time (%) = 0 (0)
Neigh time (%) = 0 (0)
Comm  time (%) = 0 (0)
Outpt time (%) = 0 (0)
Other time (%) = 0 (0)

Nlocal:    500 ave 500 max 500 min
Histogram: 1 0 0 0 0 0 0 0 0 0
Nghost:    2174 ave 2174 max 2174 min
Histogram: 1 0 0 0 0 0 0 0 0 0
Neighs:    22914 ave 22914 max 22914 min
Histogram: 1 0 0 0 0 0 0 0 0 0

Total # of neighbors = 22914
Ave neighs/atom = 45.828
Neighbor list builds = 0
Dangerous builds = 0
Memory usage per processor = 1.7156 Mbytes
mystep PotEng Xy Xz Yz Lx 
          15    -7.656088     0.052283            0            0        7.469 
          15    -7.656088     0.059752            0            0        7.469 
Loop time of 0.000880957 on 1 procs for 1 steps with 500 atoms

Pair  time (%) = 0.000830889 (94.3166)
Neigh time (%) = 0 (0)
Comm  time (%) = 2.59876e-05 (2.94993)
Outpt time (%) = 1.00136e-05 (1.13667)
Other time (%) = 1.40667e-05 (1.59675)

Nlocal:    500 ave 500 max 500 min
Histogram: 1 0 0 0 0 0 0 0 0 0
Nghost:    2174 ave 2174 max 2174 min
Histogram: 1 0 0 0 0 0 0 0 0 0
Neighs:    22914 ave 22914 max 22914 min
Histogram: 1 0 0 0 0 0 0 0 0 0

Total # of neighbors = 22914
Ave neighs/atom = 45.828
Neighbor list builds = 0
Dangerous builds = 0
WARNING: No fixes defined, atoms won't move (verlet.cpp:52)
Memory usage per processor = 1.7156 Mbytes
mystep PotEng Xy Xz Yz Lx 
          15   -7.6560301     0.059752            0            0        7.469 
Loop time of 0 on 1 procs for 0 steps with 500 atoms

Pair  time (%) = 0 (0)
Neigh time (%) = 0 (0)
Comm  time (%) = 0 (0)
Outpt time (%) = 0 (0)
Other time (%) = 0 (0)

Nlocal:    500 ave 500 max 500 min
Histogram: 1 0 0 0 0 0 0 0 0 0
Nghost:    2174 ave 2174 max 2174 min
Histogram: 1 0 0 0 0 0 0 0 0 0
Neighs:    22923 ave 22923 max 22923 min
Histogram: 1 0 0 0 0 0 0 0 0 0

Total # of neighbors = 22923
Ave neighs/atom = 45.846
Neighbor list builds = 0
Dangerous builds = 0
WARNING: Resetting reneighboring criteria during minimization (min.cpp:166)
Memory usage per processor = 2.43658 Mbytes
mystep PotEng Xy Xz Yz Lx 
          16   -7.6560301     0.059752            0            0        7.469 
          16   -7.6560687     0.059752            0            0        7.469 
Loop time of 0.565616 on 1 procs for 70 steps with 500 atoms

Minimization stats:
  Stopping criterion = energy tolerance
  Energy initial, next-to-last, final = 
        -7.65603008627     -7.65606863691     -7.65606870693
  Force two-norm initial, final = 1.4385 0.171782
  Force max component initial, final = 0.148371 0.0516317
  Final line search alpha, max atom move = 0.00195312 0.000100843
  Iterations, force evaluations = 70 643

Pair  time (%) = 0.533256 (94.2788)
Neigh time (%) = 0.00702024 (1.24117)
Comm  time (%) = 0.0164471 (2.90782)
Outpt time (%) = 0 (0)
Other time (%) = 0.00889254 (1.57219)

Nlocal:    500 ave 500 max 500 min
Histogram: 1 0 0 0 0 0 0 0 0 0
Nghost:    2178 ave 2178 max 2178 min
Histogram: 1 0 0 0 0 0 0 0 0 0
Neighs:    22920 ave 22920 max 22920 min
Histogram: 1 0 0 0 0 0 0 0 0 0

Total # of neighbors = 22920
Ave neighs/atom = 45.84
Neighbor list builds = 4
Dangerous builds = 0
WARNING: No fixes defined, atoms won't move (verlet.cpp:52)
Memory usage per processor = 1.7156 Mbytes
mystep PotEng Xy Xz Yz Lx 
          16   -7.6560687     0.059752            0            0        7.469 
Loop time of 0 on 1 procs for 0 steps with 500 atoms

Pair  time (%) = 0 (0)
Neigh time (%) = 0 (0)
Comm  time (%) = 0 (0)
Outpt time (%) = 0 (0)
Other time (%) = 0 (0)

Nlocal:    500 ave 500 max 500 min
Histogram: 1 0 0 0 0 0 0 0 0 0
Nghost:    2178 ave 2178 max 2178 min
Histogram: 1 0 0 0 0 0 0 0 0 0
Neighs:    22910 ave 22910 max 22910 min
Histogram: 1 0 0 0 0 0 0 0 0 0

Total # of neighbors = 22910
Ave neighs/atom = 45.82
Neighbor list builds = 0
Dangerous builds = 0
Memory usage per processor = 1.7156 Mbytes
mystep PotEng Xy Xz Yz Lx 
          17   -7.6560687     0.059752            0            0        7.469 
          17   -7.6560687     0.067221            0            0        7.469 
Loop time of 0.00087595 on 1 procs for 1 steps with 500 atoms

Pair  time (%) = 0.000828028 (94.5291)
Neigh time (%) = 0 (0)
Comm  time (%) = 2.5034e-05 (2.85792)
Outpt time (%) = 1.00136e-05 (1.14317)
Other time (%) = 1.28746e-05 (1.46979)

Nlocal:    500 ave 500 max 500 min
Histogram: 1 0 0 0 0 0 0 0 0 0
Nghost:    2178 ave 2178 max 2178 min
Histogram: 1 0 0 0 0 0 0 0 0 0
Neighs:    22910 ave 22910 max 22910 min
Histogram: 1 0 0 0 0 0 0 0 0 0

Total # of neighbors = 22910
Ave neighs/atom = 45.82
Neighbor list builds = 0
Dangerous builds = 0
WARNING: No fixes defined, atoms won't move (verlet.cpp:52)
Memory usage per processor = 1.7156 Mbytes
mystep PotEng Xy Xz Yz Lx 
          17   -7.6560157     0.067221            0            0        7.469 
Loop time of 0 on 1 procs for 0 steps with 500 atoms

Pair  time (%) = 0 (0)
Neigh time (%) = 0 (0)
Comm  time (%) = 0 (0)
Outpt time (%) = 0 (0)
Other time (%) = 0 (0)

Nlocal:    500 ave 500 max 500 min
Histogram: 1 0 0 0 0 0 0 0 0 0
Nghost:    2178 ave 2178 max 2178 min
Histogram: 1 0 0 0 0 0 0 0 0 0
Neighs:    22918 ave 22918 max 22918 min
Histogram: 1 0 0 0 0 0 0 0 0 0

Total # of neighbors = 22918
Ave neighs/atom = 45.836
Neighbor list builds = 0
Dangerous builds = 0
WARNING: Resetting reneighboring criteria during minimization (min.cpp:166)
Memory usage per processor = 2.43658 Mbytes
mystep PotEng Xy Xz Yz Lx 
          18   -7.6560157     0.067221            0            0        7.469 
          18   -7.6562096     0.067221            0            0        7.469 
Loop time of 0.707328 on 1 procs for 97 steps with 500 atoms

Minimization stats:
  Stopping criterion = energy tolerance
  Energy initial, next-to-last, final = 
        -7.65601565843     -7.65620955649     -7.65620963094
  Force two-norm initial, final = 1.42166 0.130096
  Force max component initial, final = 0.171483 0.0303203
  Final line search alpha, max atom move = 0.00195312 5.92194e-05
  Iterations, force evaluations = 97 813

Pair  time (%) = 0.673706 (95.2466)
Neigh time (%) = 0.00175309 (0.247847)
Comm  time (%) = 0.0204835 (2.8959)
Outpt time (%) = 0 (0)
Other time (%) = 0.0113852 (1.60961)

Nlocal:    500 ave 500 max 500 min
Histogram: 1 0 0 0 0 0 0 0 0 0
Nghost:    2184 ave 2184 max 2184 min
Histogram: 1 0 0 0 0 0 0 0 0 0
Neighs:    22891 ave 22891 max 22891 min
Histogram: 1 0 0 0 0 0 0 0 0 0

Total # of neighbors = 22891
Ave neighs/atom = 45.782
Neighbor list builds = 1
Dangerous builds = 0
WARNING: No fixes defined, atoms won't move (verlet.cpp:52)
Memory usage per processor = 1.7156 Mbytes
mystep PotEng Xy Xz Yz Lx 
          18   -7.6562096     0.067221            0            0        7.469 
Loop time of 0 on 1 procs for 0 steps with 500 atoms

Pair  time (%) = 0 (0)
Neigh time (%) = 0 (0)
Comm  time (%) = 0 (0)
Outpt time (%) = 0 (0)
Other time (%) = 0 (0)

Nlocal:    500 ave 500 max 500 min
Histogram: 1 0 0 0 0 0 0 0 0 0
Nghost:    2180 ave 2180 max 2180 min
Histogram: 1 0 0 0 0 0 0 0 0 0
Neighs:    22896 ave 22896 max 22896 min
Histogram: 1 0 0 0 0 0 0 0 0 0

Total # of neighbors = 22896
Ave neighs/atom = 45.792
Neighbor list builds = 0
Dangerous builds = 0
Memory usage per processor = 1.7156 Mbytes
mystep PotEng Xy Xz Yz Lx 
          19   -7.6562096     0.067221            0            0        7.469 
          19   -7.6562096      0.07469            0            0        7.469 
Loop time of 0.000887871 on 1 procs for 1 steps with 500 atoms

Pair  time (%) = 0.000838041 (94.3878)
Neigh time (%) = 0 (0)
Comm  time (%) = 2.47955e-05 (2.7927)
Outpt time (%) = 1.00136e-05 (1.12782)
Other time (%) = 1.50204e-05 (1.69173)

Nlocal:    500 ave 500 max 500 min
Histogram: 1 0 0 0 0 0 0 0 0 0
Nghost:    2180 ave 2180 max 2180 min
Histogram: 1 0 0 0 0 0 0 0 0 0
Neighs:    22896 ave 22896 max 22896 min
Histogram: 1 0 0 0 0 0 0 0 0 0

Total # of neighbors = 22896
Ave neighs/atom = 45.792
Neighbor list builds = 0
Dangerous builds = 0
WARNING: No fixes defined, atoms won't move (verlet.cpp:52)
Memory usage per processor = 1.7156 Mbytes
mystep PotEng Xy Xz Yz Lx 
          19   -7.6562119      0.07469            0            0        7.469 
Loop time of 9.53674e-07 on 1 procs for 0 steps with 500 atoms

Pair  time (%) = 0 (0)
Neigh time (%) = 0 (0)
Comm  time (%) = 0 (0)
Outpt time (%) = 0 (0)
Other time (%) = 9.53674e-07 (100)

Nlocal:    500 ave 500 max 500 min
Histogram: 1 0 0 0 0 0 0 0 0 0
Nghost:    2180 ave 2180 max 2180 min
Histogram: 1 0 0 0 0 0 0 0 0 0
Neighs:    22893 ave 22893 max 22893 min
Histogram: 1 0 0 0 0 0 0 0 0 0

Total # of neighbors = 22893
Ave neighs/atom = 45.786
Neighbor list builds = 0
Dangerous builds = 0
WARNING: Resetting reneighboring criteria during minimization (min.cpp:166)
Memory usage per processor = 2.43658 Mbytes
mystep PotEng Xy Xz Yz Lx 
          20   -7.6562119      0.07469            0            0        7.469 
          20   -7.6562326      0.07469            0            0        7.469 
Loop time of 0.353749 on 1 procs for 43 steps with 500 atoms

Minimization stats:
  Stopping criterion = energy tolerance
  Energy initial, next-to-last, final = 
        -7.65621190173     -7.65623256453     -7.65623262213
  Force two-norm initial, final = 1.42646 0.230442
  Force max component initial, final = 0.161793 0.0508613
  Final line search alpha, max atom move = 0.000909765 4.62718e-05
  Iterations, force evaluations = 43 405

Pair  time (%) = 0.336144 (95.0234)
Neigh time (%) = 0.00174785 (0.494092)
Comm  time (%) = 0.0102928 (2.90962)
Outpt time (%) = 0 (0)
Other time (%) = 0.00556421 (1.57293)

Nlocal:    500 ave 500 max 500 min
Histogram: 1 0 0 0 0 0 0 0 0 0
Nghost:    2172 ave 2172 max 2172 min
Histogram: 1 0 0 0 0 0 0 0 0 0
Neighs:    22901 ave 22901 max 22901 min
Histogram: 1 0 0 0 0 0 0 0 0 0

Total # of neighbors = 22901
Ave neighs/atom = 45.802
Neighbor list builds = 1
Dangerous builds = 0
WARNING: No fixes defined, atoms won't move (verlet.cpp:52)
Memory usage per processor = 1.7156 Mbytes
mystep PotEng Xy Xz Yz Lx 
          20   -7.6562326      0.07469            0            0        7.469 
Loop time of 9.53674e-07 on 1 procs for 0 steps with 500 atoms

Pair  time (%) = 0 (0)
Neigh time (%) = 0 (0)
Comm  time (%) = 0 (0)
Outpt time (%) = 0 (0)
Other time (%) = 9.53674e-07 (100)

Nlocal:    500 ave 500 max 500 min
Histogram: 1 0 0 0 0 0 0 0 0 0
Nghost:    2180 ave 2180 max 2180 min
Histogram: 1 0 0 0 0 0 0 0 0 0
Neighs:    22902 ave 22902 max 22902 min
Histogram: 1 0 0 0 0 0 0 0 0 0

Total # of neighbors = 22902
Ave neighs/atom = 45.804
Neighbor list builds = 0
Dangerous builds = 0
Memory usage per processor = 1.7156 Mbytes
mystep PotEng Xy Xz Yz Lx 
          21   -7.6562326      0.07469            0            0        7.469 
          21   -7.6562326     0.082159            0            0        7.469 
Loop time of 0.000874996 on 1 procs for 1 steps with 500 atoms

Pair  time (%) = 0.000828028 (94.6322)
Neigh time (%) = 0 (0)
Comm  time (%) = 2.5034e-05 (2.86104)
Outpt time (%) = 8.82149e-06 (1.00817)
Other time (%) = 1.3113e-05 (1.49864)

Nlocal:    500 ave 500 max 500 min
Histogram: 1 0 0 0 0 0 0 0 0 0
Nghost:    2180 ave 2180 max 2180 min
Histogram: 1 0 0 0 0 0 0 0 0 0
Neighs:    22902 ave 22902 max 22902 min
Histogram: 1 0 0 0 0 0 0 0 0 0

Total # of neighbors = 22902
Ave neighs/atom = 45.804
Neighbor list builds = 0
Dangerous builds = 0
WARNING: No fixes defined, atoms won't move (verlet.cpp:52)
Memory usage per processor = 1.7156 Mbytes
mystep PotEng Xy Xz Yz Lx 
          21   -7.6562291     0.082159            0            0        7.469 
Loop time of 0 on 1 procs for 0 steps with 500 atoms

Pair  time (%) = 0 (0)
Neigh time (%) = 0 (0)
Comm  time (%) = 0 (0)
Outpt time (%) = 0 (0)
Other time (%) = 0 (0)

Nlocal:    500 ave 500 max 500 min
Histogram: 1 0 0 0 0 0 0 0 0 0
Nghost:    2180 ave 2180 max 2180 min
Histogram: 1 0 0 0 0 0 0 0 0 0
Neighs:    22898 ave 22898 max 22898 min
Histogram: 1 0 0 0 0 0 0 0 0 0

Total # of neighbors = 22898
Ave neighs/atom = 45.796
Neighbor list builds = 0
Dangerous builds = 0
WARNING: Resetting reneighboring criteria during minimization (min.cpp:166)
Memory usage per processor = 2.43658 Mbytes
mystep PotEng Xy Xz Yz Lx 
          22   -7.6562291     0.082159            0            0        7.469 
          22   -7.6562466     0.082159            0            0        7.469 
Loop time of 0.22189 on 1 procs for 27 steps with 500 atoms

Minimization stats:
  Stopping criterion = energy tolerance
  Energy initial, next-to-last, final = 
        -7.65622908814     -7.65624650197     -7.65624657101
  Force two-norm initial, final = 1.40137 0.215305
  Force max component initial, final = 0.151197 0.0431717
  Final line search alpha, max atom move = 0.00184083 7.94715e-05
  Iterations, force evaluations = 27 255

Pair  time (%) = 0.21198 (95.5337)
Neigh time (%) = 0 (0)
Comm  time (%) = 0.00640917 (2.88844)
Outpt time (%) = 0 (0)
Other time (%) = 0.00350118 (1.57789)

Nlocal:    500 ave 500 max 500 min
Histogram: 1 0 0 0 0 0 0 0 0 0
Nghost:    2180 ave 2180 max 2180 min
Histogram: 1 0 0 0 0 0 0 0 0 0
Neighs:    22898 ave 22898 max 22898 min
Histogram: 1 0 0 0 0 0 0 0 0 0

Total # of neighbors = 22898
Ave neighs/atom = 45.796
Neighbor list builds = 0
Dangerous builds = 0
WARNING: No fixes defined, atoms won't move (verlet.cpp:52)
Memory usage per processor = 1.7156 Mbytes
mystep PotEng Xy Xz Yz Lx 
          22   -7.6562466     0.082159            0            0        7.469 
Loop time of 9.53674e-07 on 1 procs for 0 steps with 500 atoms

Pair  time (%) = 0 (0)
Neigh time (%) = 0 (0)
Comm  time (%) = 0 (0)
Outpt time (%) = 0 (0)
Other time (%) = 9.53674e-07 (100)

Nlocal:    500 ave 500 max 500 min
Histogram: 1 0 0 0 0 0 0 0 0 0
Nghost:    2180 ave 2180 max 2180 min
Histogram: 1 0 0 0 0 0 0 0 0 0
Neighs:    22898 ave 22898 max 22898 min
Histogram: 1 0 0 0 0 0 0 0 0 0

Total # of neighbors = 22898
Ave neighs/atom = 45.796
Neighbor list builds = 0
Dangerous builds = 0
Memory usage per processor = 1.7156 Mbytes
mystep PotEng Xy Xz Yz Lx 
          23   -7.6562466     0.082159            0            0        7.469 
          23   -7.6562466     0.089628            0            0        7.469 
Loop time of 0.000874043 on 1 procs for 1 steps with 500 atoms

Pair  time (%) = 0.000826836 (94.599)
Neigh time (%) = 0 (0)
Comm  time (%) = 2.5034e-05 (2.86416)
Outpt time (%) = 9.05991e-06 (1.03655)
Other time (%) = 1.3113e-05 (1.50027)

Nlocal:    500 ave 500 max 500 min
Histogram: 1 0 0 0 0 0 0 0 0 0
Nghost:    2180 ave 2180 max 2180 min
Histogram: 1 0 0 0 0 0 0 0 0 0
Neighs:    22898 ave 22898 max 22898 min
Histogram: 1 0 0 0 0 0 0 0 0 0

Total # of neighbors = 22898
Ave neighs/atom = 45.796
Neighbor list builds = 0
Dangerous builds = 0
WARNING: No fixes defined, atoms won't move (verlet.cpp:52)
Memory usage per processor = 1.7156 Mbytes
mystep PotEng Xy Xz Yz Lx 
          23   -7.6562331     0.089628            0            0        7.469 
Loop time of 0 on 1 procs for 0 steps with 500 atoms

Pair  time (%) = 0 (0)
Neigh time (%) = 0 (0)
Comm  time (%) = 0 (0)
Outpt time (%) = 0 (0)
Other time (%) = 0 (0)

Nlocal:    500 ave 500 max 500 min
Histogram: 1 0 0 0 0 0 0 0 0 0
Nghost:    2180 ave 2180 max 2180 min
Histogram: 1 0 0 0 0 0 0 0 0 0
Neighs:    22897 ave 22897 max 22897 min
Histogram: 1 0 0 0 0 0 0 0 0 0

Total # of neighbors = 22897
Ave neighs/atom = 45.794
Neighbor list builds = 0
Dangerous builds = 0
WARNING: Resetting reneighboring criteria during minimization (min.cpp:166)
Memory usage per processor = 2.43658 Mbytes
mystep PotEng Xy Xz Yz Lx 
          24   -7.6562331     0.089628            0            0        7.469 
          24     -7.65625     0.089628            0            0        7.469 
Loop time of 0.233984 on 1 procs for 28 steps with 500 atoms

Minimization stats:
  Stopping criterion = energy tolerance
  Energy initial, next-to-last, final = 
        -7.65623311176     -7.65624994806     -7.65625000521
  Force two-norm initial, final = 1.45163 0.147688
  Force max component initial, final = 0.147704 0.0376098
  Final line search alpha, max atom move = 0.00195312 7.34566e-05
  Iterations, force evaluations = 28 269

Pair  time (%) = 0.223541 (95.5371)
Neigh time (%) = 0 (0)
Comm  time (%) = 0.0067544 (2.88669)
Outpt time (%) = 0 (0)
Other time (%) = 0.0036881 (1.57622)

Nlocal:    500 ave 500 max 500 min
Histogram: 1 0 0 0 0 0 0 0 0 0
Nghost:    2180 ave 2180 max 2180 min
Histogram: 1 0 0 0 0 0 0 0 0 0
Neighs:    22897 ave 22897 max 22897 min
Histogram: 1 0 0 0 0 0 0 0 0 0

Total # of neighbors = 22897
Ave neighs/atom = 45.794
Neighbor list builds = 0
Dangerous builds = 0
WARNING: No fixes defined, atoms won't move (verlet.cpp:52)
Memory usage per processor = 1.7156 Mbytes
mystep PotEng Xy Xz Yz Lx 
          24     -7.65625     0.089628            0            0        7.469 
Loop time of 0 on 1 procs for 0 steps with 500 atoms

Pair  time (%) = 0 (0)
Neigh time (%) = 0 (0)
Comm  time (%) = 0 (0)
Outpt time (%) = 0 (0)
Other time (%) = 0 (0)

Nlocal:    500 ave 500 max 500 min
Histogram: 1 0 0 0 0 0 0 0 0 0
Nghost:    2180 ave 2180 max 2180 min
Histogram: 1 0 0 0 0 0 0 0 0 0
Neighs:    22896 ave 22896 max 22896 min
Histogram: 1 0 0 0 0 0 0 0 0 0

Total # of neighbors = 22896
Ave neighs/atom = 45.792
Neighbor list builds = 0
Dangerous builds = 0
Memory usage per processor = 1.7156 Mbytes
mystep PotEng Xy Xz Yz Lx 
          25     -7.65625     0.089628            0            0        7.469 
          25     -7.65625     0.097097            0            0        7.469 
Loop time of 0.000879049 on 1 procs for 1 steps with 500 atoms

Pair  time (%) = 0.000826836 (94.0602)
Neigh time (%) = 0 (0)
Comm  time (%) = 2.59876e-05 (2.95633)
Outpt time (%) = 1.00136e-05 (1.13914)
Other time (%) = 1.62125e-05 (1.84432)

Nlocal:    500 ave 500 max 500 min
Histogram: 1 0 0 0 0 0 0 0 0 0
Nghost:    2180 ave 2180 max 2180 min
Histogram: 1 0 0 0 0 0 0 0 0 0
Neighs:    22896 ave 22896 max 22896 min
Histogram: 1 0 0 0 0 0 0 0 0 0

Total # of neighbors = 22896
Ave neighs/atom = 45.792
Neighbor list builds = 0
Dangerous builds = 0
WARNING: No fixes defined, atoms won't move (verlet.cpp:52)
Memory usage per processor = 1.7156 Mbytes
mystep PotEng Xy Xz Yz Lx 
          25   -7.6562265     0.097097            0            0        7.469 
Loop time of 0 on 1 procs for 0 steps with 500 atoms

Pair  time (%) = 0 (0)
Neigh time (%) = 0 (0)
Comm  time (%) = 0 (0)
Outpt time (%) = 0 (0)
Other time (%) = 0 (0)

Nlocal:    500 ave 500 max 500 min
Histogram: 1 0 0 0 0 0 0 0 0 0
Nghost:    2180 ave 2180 max 2180 min
Histogram: 1 0 0 0 0 0 0 0 0 0
Neighs:    22890 ave 22890 max 22890 min
Histogram: 1 0 0 0 0 0 0 0 0 0

Total # of neighbors = 22890
Ave neighs/atom = 45.78
Neighbor list builds = 0
Dangerous builds = 0
WARNING: Resetting reneighboring criteria during minimization (min.cpp:166)
Memory usage per processor = 2.43658 Mbytes
mystep PotEng Xy Xz Yz Lx 
          26   -7.6562265     0.097097            0            0        7.469 
          26   -7.6562446     0.097097            0            0        7.469 
Loop time of 0.249598 on 1 procs for 30 steps with 500 atoms

Minimization stats:
  Stopping criterion = energy tolerance
  Energy initial, next-to-last, final = 
        -7.65622651745     -7.65624458234     -7.65624463611
  Force two-norm initial, final = 1.45995 0.145525
  Force max component initial, final = 0.148379 0.051755
  Final line search alpha, max atom move = 0.00195312 0.000101084
  Iterations, force evaluations = 30 287

Pair  time (%) = 0.238521 (95.5619)
Neigh time (%) = 0 (0)
Comm  time (%) = 0.0071311 (2.85703)
Outpt time (%) = 0 (0)
Other time (%) = 0.0039463 (1.58106)

Nlocal:    500 ave 500 max 500 min
Histogram: 1 0 0 0 0 0 0 0 0 0
Nghost:    2180 ave 2180 max 2180 min
Histogram: 1 0 0 0 0 0 0 0 0 0
Neighs:    22890 ave 22890 max 22890 min
Histogram: 1 0 0 0 0 0 0 0 0 0

Total # of neighbors = 22890
Ave neighs/atom = 45.78
Neighbor list builds = 0
Dangerous builds = 0
WARNING: No fixes defined, atoms won't move (verlet.cpp:52)
Memory usage per processor = 1.7156 Mbytes
mystep PotEng Xy Xz Yz Lx 
          26   -7.6562446     0.097097            0            0        7.469 
Loop time of 0 on 1 procs for 0 steps with 500 atoms

Pair  time (%) = 0 (0)
Neigh time (%) = 0 (0)
Comm  time (%) = 0 (0)
Outpt time (%) = 0 (0)
Other time (%) = 0 (0)

Nlocal:    500 ave 500 max 500 min
Histogram: 1 0 0 0 0 0 0 0 0 0
Nghost:    2180 ave 2180 max 2180 min
Histogram: 1 0 0 0 0 0 0 0 0 0
Neighs:    22886 ave 22886 max 22886 min
Histogram: 1 0 0 0 0 0 0 0 0 0

Total # of neighbors = 22886
Ave neighs/atom = 45.772
Neighbor list builds = 0
Dangerous builds = 0
Memory usage per processor = 1.7156 Mbytes
mystep PotEng Xy Xz Yz Lx 
          27   -7.6562446     0.097097            0            0        7.469 
          27   -7.6562446     0.104566            0            0        7.469 
Loop time of 0.00087595 on 1 procs for 1 steps with 500 atoms

Pair  time (%) = 0.000828028 (94.5291)
Neigh time (%) = 0 (0)
Comm  time (%) = 2.5034e-05 (2.85792)
Outpt time (%) = 9.05991e-06 (1.0343)
Other time (%) = 1.38283e-05 (1.57866)

Nlocal:    500 ave 500 max 500 min
Histogram: 1 0 0 0 0 0 0 0 0 0
Nghost:    2180 ave 2180 max 2180 min
Histogram: 1 0 0 0 0 0 0 0 0 0
Neighs:    22886 ave 22886 max 22886 min
Histogram: 1 0 0 0 0 0 0 0 0 0

Total # of neighbors = 22886
Ave neighs/atom = 45.772
Neighbor list builds = 0
Dangerous builds = 0
WARNING: No fixes defined, atoms won't move (verlet.cpp:52)
Memory usage per processor = 1.7156 Mbytes
mystep PotEng Xy Xz Yz Lx 
          27   -7.6562119     0.104566            0            0        7.469 
Loop time of 0 on 1 procs for 0 steps with 500 atoms

Pair  time (%) = 0 (0)
Neigh time (%) = 0 (0)
Comm  time (%) = 0 (0)
Outpt time (%) = 0 (0)
Other time (%) = 0 (0)

Nlocal:    500 ave 500 max 500 min
Histogram: 1 0 0 0 0 0 0 0 0 0
Nghost:    2180 ave 2180 max 2180 min
Histogram: 1 0 0 0 0 0 0 0 0 0
Neighs:    22890 ave 22890 max 22890 min
Histogram: 1 0 0 0 0 0 0 0 0 0

Total # of neighbors = 22890
Ave neighs/atom = 45.78
Neighbor list builds = 0
Dangerous builds = 0
WARNING: Resetting reneighboring criteria during minimization (min.cpp:166)
Memory usage per processor = 2.43658 Mbytes
mystep PotEng Xy Xz Yz Lx 
          28   -7.6562119     0.104566            0            0        7.469 
          28   -7.6562303     0.104566            0            0        7.469 
Loop time of 0.204699 on 1 procs for 25 steps with 500 atoms

Minimization stats:
  Stopping criterion = energy tolerance
  Energy initial, next-to-last, final = 
        -7.65621190841      -7.6562302876     -7.65623033511
  Force two-norm initial, final = 1.4191 0.135744
  Force max component initial, final = 0.157278 0.0458218
  Final line search alpha, max atom move = 0.00195312 8.94956e-05
  Iterations, force evaluations = 25 235

Pair  time (%) = 0.195606 (95.5577)
Neigh time (%) = 0 (0)
Comm  time (%) = 0.00585032 (2.85801)
Outpt time (%) = 0 (0)
Other time (%) = 0.00324297 (1.58426)

Nlocal:    500 ave 500 max 500 min
Histogram: 1 0 0 0 0 0 0 0 0 0
Nghost:    2180 ave 2180 max 2180 min
Histogram: 1 0 0 0 0 0 0 0 0 0
Neighs:    22890 ave 22890 max 22890 min
Histogram: 1 0 0 0 0 0 0 0 0 0

Total # of neighbors = 22890
Ave neighs/atom = 45.78
Neighbor list builds = 0
Dangerous builds = 0
WARNING: No fixes defined, atoms won't move (verlet.cpp:52)
Memory usage per processor = 1.7156 Mbytes
mystep PotEng Xy Xz Yz Lx 
          28   -7.6562303     0.104566            0            0        7.469 
Loop time of 0 on 1 procs for 0 steps with 500 atoms

Pair  time (%) = 0 (0)
Neigh time (%) = 0 (0)
Comm  time (%) = 0 (0)
Outpt time (%) = 0 (0)
Other time (%) = 0 (0)

Nlocal:    500 ave 500 max 500 min
Histogram: 1 0 0 0 0 0 0 0 0 0
Nghost:    2183 ave 2183 max 2183 min
Histogram: 1 0 0 0 0 0 0 0 0 0
Neighs:    22886 ave 22886 max 22886 min
Histogram: 1 0 0 0 0 0 0 0 0 0

Total # of neighbors = 22886
Ave neighs/atom = 45.772
Neighbor list builds = 0
Dangerous builds = 0
Memory usage per processor = 1.7156 Mbytes
mystep PotEng Xy Xz Yz Lx 
          29   -7.6562303     0.104566            0            0        7.469 
          29   -7.6562303     0.112035            0            0        7.469 
Loop time of 0.000876904 on 1 procs for 1 steps with 500 atoms

Pair  time (%) = 0.000828028 (94.4263)
Neigh time (%) = 0 (0)
Comm  time (%) = 2.47955e-05 (2.82762)
Outpt time (%) = 9.05991e-06 (1.03317)
Other time (%) = 1.50204e-05 (1.71289)

Nlocal:    500 ave 500 max 500 min
Histogram: 1 0 0 0 0 0 0 0 0 0
Nghost:    2183 ave 2183 max 2183 min
Histogram: 1 0 0 0 0 0 0 0 0 0
Neighs:    22886 ave 22886 max 22886 min
Histogram: 1 0 0 0 0 0 0 0 0 0

Total # of neighbors = 22886
Ave neighs/atom = 45.772
Neighbor list builds = 0
Dangerous builds = 0
WARNING: No fixes defined, atoms won't move (verlet.cpp:52)
Memory usage per processor = 1.7156 Mbytes
mystep PotEng Xy Xz Yz Lx 
          29   -7.6561882     0.112035            0            0        7.469 
Loop time of 0 on 1 procs for 0 steps with 500 atoms

Pair  time (%) = 0 (0)
Neigh time (%) = 0 (0)
Comm  time (%) = 0 (0)
Outpt time (%) = 0 (0)
Other time (%) = 0 (0)

Nlocal:    500 ave 500 max 500 min
Histogram: 1 0 0 0 0 0 0 0 0 0
Nghost:    2183 ave 2183 max 2183 min
Histogram: 1 0 0 0 0 0 0 0 0 0
Neighs:    22890 ave 22890 max 22890 min
Histogram: 1 0 0 0 0 0 0 0 0 0

Total # of neighbors = 22890
Ave neighs/atom = 45.78
Neighbor list builds = 0
Dangerous builds = 0
WARNING: Resetting reneighboring criteria during minimization (min.cpp:166)
Memory usage per processor = 2.43658 Mbytes
mystep PotEng Xy Xz Yz Lx 
          30   -7.6561882     0.112035            0            0        7.469 
          30   -7.6562055     0.112035            0            0        7.469 
Loop time of 0.274095 on 1 procs for 33 steps with 500 atoms

Minimization stats:
  Stopping criterion = energy tolerance
  Energy initial, next-to-last, final = 
         -7.6561881735     -7.65620537988     -7.65620545264
  Force two-norm initial, final = 1.41289 0.147839
  Force max component initial, final = 0.142981 0.0290804
  Final line search alpha, max atom move = 0.00390625 0.000113595
  Iterations, force evaluations = 33 315

Pair  time (%) = 0.261917 (95.5569)
Neigh time (%) = 0 (0)
Comm  time (%) = 0.00784588 (2.86247)
Outpt time (%) = 0 (0)
Other time (%) = 0.0043323 (1.58058)

Nlocal:    500 ave 500 max 500 min
Histogram: 1 0 0 0 0 0 0 0 0 0
Nghost:    2183 ave 2183 max 2183 min
Histogram: 1 0 0 0 0 0 0 0 0 0
Neighs:    22890 ave 22890 max 22890 min
Histogram: 1 0 0 0 0 0 0 0 0 0

Total # of neighbors = 22890
Ave neighs/atom = 45.78
Neighbor list builds = 0
Dangerous builds = 0
WARNING: No fixes defined, atoms won't move (verlet.cpp:52)
Memory usage per processor = 1.7156 Mbytes
mystep PotEng Xy Xz Yz Lx 
          30   -7.6562055     0.112035            0            0        7.469 
Loop time of 0 on 1 procs for 0 steps with 500 atoms

Pair  time (%) = 0 (0)
Neigh time (%) = 0 (0)
Comm  time (%) = 0 (0)
Outpt time (%) = 0 (0)
Other time (%) = 0 (0)

Nlocal:    500 ave 500 max 500 min
Histogram: 1 0 0 0 0 0 0 0 0 0
Nghost:    2183 ave 2183 max 2183 min
Histogram: 1 0 0 0 0 0 0 0 0 0
Neighs:    22891 ave 22891 max 22891 min
Histogram: 1 0 0 0 0 0 0 0 0 0

Total # of neighbors = 22891
Ave neighs/atom = 45.782
Neighbor list builds = 0
Dangerous builds = 0
Memory usage per processor = 1.7156 Mbytes
mystep PotEng Xy Xz Yz Lx 
          31   -7.6562055     0.112035            0            0        7.469 
          31   -7.6562055     0.119504            0            0        7.469 
Loop time of 0.000877142 on 1 procs for 1 steps with 500 atoms

Pair  time (%) = 0.000828981 (94.5094)
Neigh time (%) = 0 (0)
Comm  time (%) = 2.6226e-05 (2.98994)
Outpt time (%) = 1.00136e-05 (1.14161)
Other time (%) = 1.19209e-05 (1.35906)

Nlocal:    500 ave 500 max 500 min
Histogram: 1 0 0 0 0 0 0 0 0 0
Nghost:    2183 ave 2183 max 2183 min
Histogram: 1 0 0 0 0 0 0 0 0 0
Neighs:    22891 ave 22891 max 22891 min
Histogram: 1 0 0 0 0 0 0 0 0 0

Total # of neighbors = 22891
Ave neighs/atom = 45.782
Neighbor list builds = 0
Dangerous builds = 0
WARNING: No fixes defined, atoms won't move (verlet.cpp:52)
Memory usage per processor = 1.7156 Mbytes
mystep PotEng Xy Xz Yz Lx 
          31   -7.6561544     0.119504            0            0        7.469 
Loop time of 0 on 1 procs for 0 steps with 500 atoms

Pair  time (%) = 0 (0)
Neigh time (%) = 0 (0)
Comm  time (%) = 0 (0)
Outpt time (%) = 0 (0)
Other time (%) = 0 (0)

Nlocal:    500 ave 500 max 500 min
Histogram: 1 0 0 0 0 0 0 0 0 0
Nghost:    2183 ave 2183 max 2183 min
Histogram: 1 0 0 0 0 0 0 0 0 0
Neighs:    22890 ave 22890 max 22890 min
Histogram: 1 0 0 0 0 0 0 0 0 0

Total # of neighbors = 22890
Ave neighs/atom = 45.78
Neighbor list builds = 0
Dangerous builds = 0
WARNING: Resetting reneighboring criteria during minimization (min.cpp:166)
Memory usage per processor = 2.43658 Mbytes
mystep PotEng Xy Xz Yz Lx 
          32   -7.6561544     0.119504            0            0        7.469 
          32   -7.6561707     0.119504            0            0        7.469 
Loop time of 0.22273 on 1 procs for 27 steps with 500 atoms

Minimization stats:
  Stopping criterion = energy tolerance
  Energy initial, next-to-last, final = 
        -7.65615437602     -7.65617064895     -7.65617072471
  Force two-norm initial, final = 1.39434 0.264756
  Force max component initial, final = 0.140556 0.0435977
  Final line search alpha, max atom move = 0.00195312 8.51517e-05
  Iterations, force evaluations = 27 256

Pair  time (%) = 0.212811 (95.5464)
Neigh time (%) = 0 (0)
Comm  time (%) = 0.00640583 (2.87605)
Outpt time (%) = 0 (0)
Other time (%) = 0.00351357 (1.5775)

Nlocal:    500 ave 500 max 500 min
Histogram: 1 0 0 0 0 0 0 0 0 0
Nghost:    2183 ave 2183 max 2183 min
Histogram: 1 0 0 0 0 0 0 0 0 0
Neighs:    22890 ave 22890 max 22890 min
Histogram: 1 0 0 0 0 0 0 0 0 0

Total # of neighbors = 22890
Ave neighs/atom = 45.78
Neighbor list builds = 0
Dangerous builds = 0
WARNING: No fixes defined, atoms won't move (verlet.cpp:52)
Memory usage per processor = 1.7156 Mbytes
mystep PotEng Xy Xz Yz Lx 
          32   -7.6561707     0.119504            0            0        7.469 
Loop time of 0 on 1 procs for 0 steps with 500 atoms

Pair  time (%) = 0 (0)
Neigh time (%) = 0 (0)
Comm  time (%) = 0 (0)
Outpt time (%) = 0 (0)
Other time (%) = 0 (0)

Nlocal:    500 ave 500 max 500 min
Histogram: 1 0 0 0 0 0 0 0 0 0
Nghost:    2183 ave 2183 max 2183 min
Histogram: 1 0 0 0 0 0 0 0 0 0
Neighs:    22892 ave 22892 max 22892 min
Histogram: 1 0 0 0 0 0 0 0 0 0

Total # of neighbors = 22892
Ave neighs/atom = 45.784
Neighbor list builds = 0
Dangerous builds = 0
Memory usage per processor = 1.7156 Mbytes
mystep PotEng Xy Xz Yz Lx 
          33   -7.6561707     0.119504            0            0        7.469 
          33   -7.6561707     0.126973            0            0        7.469 
Loop time of 0.000874996 on 1 procs for 1 steps with 500 atoms

Pair  time (%) = 0.000827074 (94.5232)
Neigh time (%) = 0 (0)
Comm  time (%) = 2.59876e-05 (2.97003)
Outpt time (%) = 9.05991e-06 (1.03542)
Other time (%) = 1.28746e-05 (1.47139)

Nlocal:    500 ave 500 max 500 min
Histogram: 1 0 0 0 0 0 0 0 0 0
Nghost:    2183 ave 2183 max 2183 min
Histogram: 1 0 0 0 0 0 0 0 0 0
Neighs:    22892 ave 22892 max 22892 min
Histogram: 1 0 0 0 0 0 0 0 0 0

Total # of neighbors = 22892
Ave neighs/atom = 45.784
Neighbor list builds = 0
Dangerous builds = 0
WARNING: No fixes defined, atoms won't move (verlet.cpp:52)
Memory usage per processor = 1.7156 Mbytes
mystep PotEng Xy Xz Yz Lx 
          33   -7.6561102     0.126973            0            0        7.469 
Loop time of 9.53674e-07 on 1 procs for 0 steps with 500 atoms

Pair  time (%) = 0 (0)
Neigh time (%) = 0 (0)
Comm  time (%) = 0 (0)
Outpt time (%) = 0 (0)
Other time (%) = 9.53674e-07 (100)

Nlocal:    500 ave 500 max 500 min
Histogram: 1 0 0 0 0 0 0 0 0 0
Nghost:    2183 ave 2183 max 2183 min
Histogram: 1 0 0 0 0 0 0 0 0 0
Neighs:    22889 ave 22889 max 22889 min
Histogram: 1 0 0 0 0 0 0 0 0 0

Total # of neighbors = 22889
Ave neighs/atom = 45.778
Neighbor list builds = 0
Dangerous builds = 0
WARNING: Resetting reneighboring criteria during minimization (min.cpp:166)
Memory usage per processor = 2.43658 Mbytes
mystep PotEng Xy Xz Yz Lx 
          34   -7.6561102     0.126973            0            0        7.469 
          34   -7.6561267     0.126973            0            0        7.469 
Loop time of 0.228797 on 1 procs for 28 steps with 500 atoms

Minimization stats:
  Stopping criterion = energy tolerance
  Energy initial, next-to-last, final = 
        -7.65611022179      -7.6561266461     -7.65612670435
  Force two-norm initial, final = 1.39655 0.228955
  Force max component initial, final = 0.137268 0.050352
  Final line search alpha, max atom move = 0.0012501 6.2945e-05
  Iterations, force evaluations = 28 263

Pair  time (%) = 0.21862 (95.5518)
Neigh time (%) = 0 (0)
Comm  time (%) = 0.00657201 (2.87242)
Outpt time (%) = 0 (0)
Other time (%) = 0.00360537 (1.57579)

Nlocal:    500 ave 500 max 500 min
Histogram: 1 0 0 0 0 0 0 0 0 0
Nghost:    2183 ave 2183 max 2183 min
Histogram: 1 0 0 0 0 0 0 0 0 0
Neighs:    22889 ave 22889 max 22889 min
Histogram: 1 0 0 0 0 0 0 0 0 0

Total # of neighbors = 22889
Ave neighs/atom = 45.778
Neighbor list builds = 0
Dangerous builds = 0
WARNING: No fixes defined, atoms won't move (verlet.cpp:52)
Memory usage per processor = 1.7156 Mbytes
mystep PotEng Xy Xz Yz Lx 
          34   -7.6561267     0.126973            0            0        7.469 
Loop time of 0 on 1 procs for 0 steps with 500 atoms

Pair  time (%) = 0 (0)
Neigh time (%) = 0 (0)
Comm  time (%) = 0 (0)
Outpt time (%) = 0 (0)
Other time (%) = 0 (0)

Nlocal:    500 ave 500 max 500 min
Histogram: 1 0 0 0 0 0 0 0 0 0
Nghost:    2183 ave 2183 max 2183 min
Histogram: 1 0 0 0 0 0 0 0 0 0
Neighs:    22898 ave 22898 max 22898 min
Histogram: 1 0 0 0 0 0 0 0 0 0

Total # of neighbors = 22898
Ave neighs/atom = 45.796
Neighbor list builds = 0
Dangerous builds = 0
Memory usage per processor = 1.7156 Mbytes
mystep PotEng Xy Xz Yz Lx 
          35   -7.6561267     0.126973            0            0        7.469 
          35   -7.6561267     0.134442            0            0        7.469 
Loop time of 0.00088191 on 1 procs for 1 steps with 500 atoms

Pair  time (%) = 0.000833988 (94.5661)
Neigh time (%) = 0 (0)
Comm  time (%) = 2.47955e-05 (2.81157)
Outpt time (%) = 1.00136e-05 (1.13544)
Other time (%) = 1.3113e-05 (1.48689)

Nlocal:    500 ave 500 max 500 min
Histogram: 1 0 0 0 0 0 0 0 0 0
Nghost:    2183 ave 2183 max 2183 min
Histogram: 1 0 0 0 0 0 0 0 0 0
Neighs:    22898 ave 22898 max 22898 min
Histogram: 1 0 0 0 0 0 0 0 0 0

Total # of neighbors = 22898
Ave neighs/atom = 45.796
Neighbor list builds = 0
Dangerous builds = 0
WARNING: No fixes defined, atoms won't move (verlet.cpp:52)
Memory usage per processor = 1.7156 Mbytes
mystep PotEng Xy Xz Yz Lx 
          35   -7.6560553     0.134442            0            0        7.469 
Loop time of 0 on 1 procs for 0 steps with 500 atoms

Pair  time (%) = 0 (0)
Neigh time (%) = 0 (0)
Comm  time (%) = 0 (0)
Outpt time (%) = 0 (0)
Other time (%) = 0 (0)

Nlocal:    500 ave 500 max 500 min
Histogram: 1 0 0 0 0 0 0 0 0 0
Nghost:    2183 ave 2183 max 2183 min
Histogram: 1 0 0 0 0 0 0 0 0 0
Neighs:    22895 ave 22895 max 22895 min
Histogram: 1 0 0 0 0 0 0 0 0 0

Total # of neighbors = 22895
Ave neighs/atom = 45.79
Neighbor list builds = 0
Dangerous builds = 0
WARNING: Resetting reneighboring criteria during minimization (min.cpp:166)
Memory usage per processor = 2.43658 Mbytes
mystep PotEng Xy Xz Yz Lx 
          36   -7.6560553     0.134442            0            0        7.469 
          36   -7.6560723     0.134442            0            0        7.469 
Loop time of 0.216043 on 1 procs for 26 steps with 500 atoms

Minimization stats:
  Stopping criterion = energy tolerance
  Energy initial, next-to-last, final = 
        -7.65605525184     -7.65607224653     -7.65607230922
  Force two-norm initial, final = 1.43961 0.113238
  Force max component initial, final = 0.155038 0.0211235
  Final line search alpha, max atom move = 0.00195312 4.12568e-05
  Iterations, force evaluations = 26 248

Pair  time (%) = 0.206436 (95.5531)
Neigh time (%) = 0 (0)
Comm  time (%) = 0.00620461 (2.87193)
Outpt time (%) = 0 (0)
Other time (%) = 0.00340271 (1.57502)

Nlocal:    500 ave 500 max 500 min
Histogram: 1 0 0 0 0 0 0 0 0 0
Nghost:    2183 ave 2183 max 2183 min
Histogram: 1 0 0 0 0 0 0 0 0 0
Neighs:    22895 ave 22895 max 22895 min
Histogram: 1 0 0 0 0 0 0 0 0 0

Total # of neighbors = 22895
Ave neighs/atom = 45.79
Neighbor list builds = 0
Dangerous builds = 0
WARNING: No fixes defined, atoms won't move (verlet.cpp:52)
Memory usage per processor = 1.7156 Mbytes
mystep PotEng Xy Xz Yz Lx 
          36   -7.6560723     0.134442            0            0        7.469 
Loop time of 0 on 1 procs for 0 steps with 500 atoms

Pair  time (%) = 0 (0)
Neigh time (%) = 0 (0)
Comm  time (%) = 0 (0)
Outpt time (%) = 0 (0)
Other time (%) = 0 (0)

Nlocal:    500 ave 500 max 500 min
Histogram: 1 0 0 0 0 0 0 0 0 0
Nghost:    2183 ave 2183 max 2183 min
Histogram: 1 0 0 0 0 0 0 0 0 0
Neighs:    22895 ave 22895 max 22895 min
Histogram: 1 0 0 0 0 0 0 0 0 0

Total # of neighbors = 22895
Ave neighs/atom = 45.79
Neighbor list builds = 0
Dangerous builds = 0
Memory usage per processor = 1.7156 Mbytes
mystep PotEng Xy Xz Yz Lx 
          37   -7.6560723     0.134442            0            0        7.469 
          37   -7.6560723     0.141911            0            0        7.469 
Loop time of 0.000877857 on 1 procs for 1 steps with 500 atoms

Pair  time (%) = 0.000829935 (94.541)
Neigh time (%) = 0 (0)
Comm  time (%) = 2.69413e-05 (3.06898)
Outpt time (%) = 8.82149e-06 (1.00489)
Other time (%) = 1.21593e-05 (1.38512)

Nlocal:    500 ave 500 max 500 min
Histogram: 1 0 0 0 0 0 0 0 0 0
Nghost:    2183 ave 2183 max 2183 min
Histogram: 1 0 0 0 0 0 0 0 0 0
Neighs:    22895 ave 22895 max 22895 min
Histogram: 1 0 0 0 0 0 0 0 0 0

Total # of neighbors = 22895
Ave neighs/atom = 45.79
Neighbor list builds = 0
Dangerous builds = 0
WARNING: No fixes defined, atoms won't move (verlet.cpp:52)
Memory usage per processor = 1.7156 Mbytes
mystep PotEng Xy Xz Yz Lx 
          37   -7.6559919     0.141911            0            0        7.469 
Loop time of 0 on 1 procs for 0 steps with 500 atoms

Pair  time (%) = 0 (0)
Neigh time (%) = 0 (0)
Comm  time (%) = 0 (0)
Outpt time (%) = 0 (0)
Other time (%) = 0 (0)

Nlocal:    500 ave 500 max 500 min
Histogram: 1 0 0 0 0 0 0 0 0 0
Nghost:    2183 ave 2183 max 2183 min
Histogram: 1 0 0 0 0 0 0 0 0 0
Neighs:    22887 ave 22887 max 22887 min
Histogram: 1 0 0 0 0 0 0 0 0 0

Total # of neighbors = 22887
Ave neighs/atom = 45.774
Neighbor list builds = 0
Dangerous builds = 0
WARNING: Resetting reneighboring criteria during minimization (min.cpp:166)
Memory usage per processor = 2.43658 Mbytes
mystep PotEng Xy Xz Yz Lx 
          38   -7.6559919     0.141911            0            0        7.469 
          38   -7.6560078     0.141911            0            0        7.469 
Loop time of 0.173785 on 1 procs for 21 steps with 500 atoms

Minimization stats:
  Stopping criterion = energy tolerance
  Energy initial, next-to-last, final = 
        -7.65599190755     -7.65600771064     -7.65600777101
  Force two-norm initial, final = 1.3975 0.114009
  Force max component initial, final = 0.144155 0.0172178
  Final line search alpha, max atom move = 0.000976562 1.68142e-05
  Iterations, force evaluations = 21 199

Pair  time (%) = 0.16605 (95.5492)
Neigh time (%) = 0 (0)
Comm  time (%) = 0.00502682 (2.89255)
Outpt time (%) = 0 (0)
Other time (%) = 0.00270796 (1.55822)

Nlocal:    500 ave 500 max 500 min
Histogram: 1 0 0 0 0 0 0 0 0 0
Nghost:    2183 ave 2183 max 2183 min
Histogram: 1 0 0 0 0 0 0 0 0 0
Neighs:    22887 ave 22887 max 22887 min
Histogram: 1 0 0 0 0 0 0 0 0 0

Total # of neighbors = 22887
Ave neighs/atom = 45.774
Neighbor list builds = 0
Dangerous builds = 0
WARNING: No fixes defined, atoms won't move (verlet.cpp:52)
Memory usage per processor = 1.7156 Mbytes
mystep PotEng Xy Xz Yz Lx 
          38   -7.6560078     0.141911            0            0        7.469 
Loop time of 0 on 1 procs for 0 steps with 500 atoms

Pair  time (%) = 0 (0)
Neigh time (%) = 0 (0)
Comm  time (%) = 0 (0)
Outpt time (%) = 0 (0)
Other time (%) = 0 (0)

Nlocal:    500 ave 500 max 500 min
Histogram: 1 0 0 0 0 0 0 0 0 0
Nghost:    2183 ave 2183 max 2183 min
Histogram: 1 0 0 0 0 0 0 0 0 0
Neighs:    22893 ave 22893 max 22893 min
Histogram: 1 0 0 0 0 0 0 0 0 0

Total # of neighbors = 22893
Ave neighs/atom = 45.786
Neighbor list builds = 0
Dangerous builds = 0
Memory usage per processor = 1.7156 Mbytes
mystep PotEng Xy Xz Yz Lx 
          39   -7.6560078     0.141911            0            0        7.469 
          39   -7.6560078      0.14938            0            0        7.469 
Loop time of 0.000879049 on 1 procs for 1 steps with 500 atoms

Pair  time (%) = 0.000830173 (94.4399)
Neigh time (%) = 0 (0)
Comm  time (%) = 2.47955e-05 (2.82072)
Outpt time (%) = 1.00136e-05 (1.13914)
Other time (%) = 1.40667e-05 (1.60022)

Nlocal:    500 ave 500 max 500 min
Histogram: 1 0 0 0 0 0 0 0 0 0
Nghost:    2183 ave 2183 max 2183 min
Histogram: 1 0 0 0 0 0 0 0 0 0
Neighs:    22893 ave 22893 max 22893 min
Histogram: 1 0 0 0 0 0 0 0 0 0

Total # of neighbors = 22893
Ave neighs/atom = 45.786
Neighbor list builds = 0
Dangerous builds = 0
WARNING: No fixes defined, atoms won't move (verlet.cpp:52)
Memory usage per processor = 1.7156 Mbytes
mystep PotEng Xy Xz Yz Lx 
          39   -7.6559179      0.14938            0            0        7.469 
Loop time of 0 on 1 procs for 0 steps with 500 atoms

Pair  time (%) = 0 (0)
Neigh time (%) = 0 (0)
Comm  time (%) = 0 (0)
Outpt time (%) = 0 (0)
Other time (%) = 0 (0)

Nlocal:    500 ave 500 max 500 min
Histogram: 1 0 0 0 0 0 0 0 0 0
Nghost:    2183 ave 2183 max 2183 min
Histogram: 1 0 0 0 0 0 0 0 0 0
Neighs:    22884 ave 22884 max 22884 min
Histogram: 1 0 0 0 0 0 0 0 0 0

Total # of neighbors = 22884
Ave neighs/atom = 45.768
Neighbor list builds = 0
Dangerous builds = 0
WARNING: Resetting reneighboring criteria during minimization (min.cpp:166)
Memory usage per processor = 2.43658 Mbytes
mystep PotEng Xy Xz Yz Lx 
          40   -7.6559179      0.14938            0            0        7.469 
          40   -7.6559346      0.14938            0            0        7.469 
Loop time of 0.251384 on 1 procs for 30 steps with 500 atoms

Minimization stats:
  Stopping criterion = energy tolerance
  Energy initial, next-to-last, final = 
        -7.65591785137     -7.65593451038     -7.65593456939
  Force two-norm initial, final = 1.39183 0.191065
  Force max component initial, final = 0.142409 0.0306213
  Final line search alpha, max atom move = 0.00195312 5.98073e-05
  Iterations, force evaluations = 30 284

Pair  time (%) = 0.23653 (94.0909)
Neigh time (%) = 0.00355411 (1.41382)
Comm  time (%) = 0.00737357 (2.93319)
Outpt time (%) = 0 (0)
Other time (%) = 0.00392675 (1.56205)

Nlocal:    500 ave 500 max 500 min
Histogram: 1 0 0 0 0 0 0 0 0 0
Nghost:    2187 ave 2187 max 2187 min
Histogram: 1 0 0 0 0 0 0 0 0 0
Neighs:    22882 ave 22882 max 22882 min
Histogram: 1 0 0 0 0 0 0 0 0 0

Total # of neighbors = 22882
Ave neighs/atom = 45.764
Neighbor list builds = 2
Dangerous builds = 0
WARNING: No fixes defined, atoms won't move (verlet.cpp:52)
Memory usage per processor = 1.7156 Mbytes
mystep PotEng Xy Xz Yz Lx 
          40   -7.6559346      0.14938            0            0        7.469 
Loop time of 0 on 1 procs for 0 steps with 500 atoms

Pair  time (%) = 0 (0)
Neigh time (%) = 0 (0)
Comm  time (%) = 0 (0)
Outpt time (%) = 0 (0)
Other time (%) = 0 (0)

Nlocal:    500 ave 500 max 500 min
Histogram: 1 0 0 0 0 0 0 0 0 0
Nghost:    2187 ave 2187 max 2187 min
Histogram: 1 0 0 0 0 0 0 0 0 0
Neighs:    22886 ave 22886 max 22886 min
Histogram: 1 0 0 0 0 0 0 0 0 0

Total # of neighbors = 22886
Ave neighs/atom = 45.772
Neighbor list builds = 0
Dangerous builds = 0
Memory usage per processor = 1.7156 Mbytes
mystep PotEng Xy Xz Yz Lx 
          41   -7.6559346      0.14938            0            0        7.469 
          41   -7.6559346     0.156849            0            0        7.469 
Loop time of 0.000878096 on 1 procs for 1 steps with 500 atoms

Pair  time (%) = 0.000829935 (94.5153)
Neigh time (%) = 0 (0)
Comm  time (%) = 2.59876e-05 (2.95954)
Outpt time (%) = 9.05991e-06 (1.03177)
Other time (%) = 1.3113e-05 (1.49335)

Nlocal:    500 ave 500 max 500 min
Histogram: 1 0 0 0 0 0 0 0 0 0
Nghost:    2187 ave 2187 max 2187 min
Histogram: 1 0 0 0 0 0 0 0 0 0
Neighs:    22886 ave 22886 max 22886 min
Histogram: 1 0 0 0 0 0 0 0 0 0

Total # of neighbors = 22886
Ave neighs/atom = 45.772
Neighbor list builds = 0
Dangerous builds = 0
WARNING: No fixes defined, atoms won't move (verlet.cpp:52)
Memory usage per processor = 1.7156 Mbytes
mystep PotEng Xy Xz Yz Lx 
          41   -7.6558339     0.156849            0            0        7.469 
Loop time of 0 on 1 procs for 0 steps with 500 atoms

Pair  time (%) = 0 (0)
Neigh time (%) = 0 (0)
Comm  time (%) = 0 (0)
Outpt time (%) = 0 (0)
Other time (%) = 0 (0)

Nlocal:    500 ave 500 max 500 min
Histogram: 1 0 0 0 0 0 0 0 0 0
Nghost:    2187 ave 2187 max 2187 min
Histogram: 1 0 0 0 0 0 0 0 0 0
Neighs:    22884 ave 22884 max 22884 min
Histogram: 1 0 0 0 0 0 0 0 0 0

Total # of neighbors = 22884
Ave neighs/atom = 45.768
Neighbor list builds = 0
Dangerous builds = 0
WARNING: Resetting reneighboring criteria during minimization (min.cpp:166)
Memory usage per processor = 2.43658 Mbytes
mystep PotEng Xy Xz Yz Lx 
          42   -7.6558339     0.156849            0            0        7.469 
          42   -7.6558572     0.156849            0            0        7.469 
Loop time of 0.452466 on 1 procs for 55 steps with 500 atoms

Minimization stats:
  Stopping criterion = energy tolerance
  Energy initial, next-to-last, final = 
        -7.65583394762     -7.65585709531     -7.65585716955
  Force two-norm initial, final = 1.41772 0.187134
  Force max component initial, final = 0.150581 0.0336238
  Final line search alpha, max atom move = 0.00195312 6.56715e-05
  Iterations, force evaluations = 55 517

Pair  time (%) = 0.43037 (95.1165)
Neigh time (%) = 0.00178409 (0.394303)
Comm  time (%) = 0.0131803 (2.91298)
Outpt time (%) = 0 (0)
Other time (%) = 0.00713181 (1.57621)

Nlocal:    500 ave 500 max 500 min
Histogram: 1 0 0 0 0 0 0 0 0 0
Nghost:    2178 ave 2178 max 2178 min
Histogram: 1 0 0 0 0 0 0 0 0 0
Neighs:    22881 ave 22881 max 22881 min
Histogram: 1 0 0 0 0 0 0 0 0 0

Total # of neighbors = 22881
Ave neighs/atom = 45.762
Neighbor list builds = 1
Dangerous builds = 0
WARNING: No fixes defined, atoms won't move (verlet.cpp:52)
Memory usage per processor = 1.7156 Mbytes
mystep PotEng Xy Xz Yz Lx 
          42   -7.6558572     0.156849            0            0        7.469 
Loop time of 0 on 1 procs for 0 steps with 500 atoms

Pair  time (%) = 0 (0)
Neigh time (%) = 0 (0)
Comm  time (%) = 0 (0)
Outpt time (%) = 0 (0)
Other time (%) = 0 (0)

Nlocal:    500 ave 500 max 500 min
Histogram: 1 0 0 0 0 0 0 0 0 0
Nghost:    2187 ave 2187 max 2187 min
Histogram: 1 0 0 0 0 0 0 0 0 0
Neighs:    22889 ave 22889 max 22889 min
Histogram: 1 0 0 0 0 0 0 0 0 0

Total # of neighbors = 22889
Ave neighs/atom = 45.778
Neighbor list builds = 0
Dangerous builds = 0
Memory usage per processor = 1.7156 Mbytes
mystep PotEng Xy Xz Yz Lx 
          43   -7.6558572     0.156849            0            0        7.469 
          43   -7.6558572     0.164318            0            0        7.469 
Loop time of 0.000877142 on 1 procs for 1 steps with 500 atoms

Pair  time (%) = 0.000828028 (94.4007)
Neigh time (%) = 0 (0)
Comm  time (%) = 2.5034e-05 (2.85404)
Outpt time (%) = 1.00136e-05 (1.14161)
Other time (%) = 1.40667e-05 (1.6037)

Nlocal:    500 ave 500 max 500 min
Histogram: 1 0 0 0 0 0 0 0 0 0
Nghost:    2187 ave 2187 max 2187 min
Histogram: 1 0 0 0 0 0 0 0 0 0
Neighs:    22889 ave 22889 max 22889 min
Histogram: 1 0 0 0 0 0 0 0 0 0

Total # of neighbors = 22889
Ave neighs/atom = 45.778
Neighbor list builds = 0
Dangerous builds = 0
WARNING: No fixes defined, atoms won't move (verlet.cpp:52)
Memory usage per processor = 1.7156 Mbytes
mystep PotEng Xy Xz Yz Lx 
          43   -7.6557488     0.164318            0            0        7.469 
Loop time of 0 on 1 procs for 0 steps with 500 atoms

Pair  time (%) = 0 (0)
Neigh time (%) = 0 (0)
Comm  time (%) = 0 (0)
Outpt time (%) = 0 (0)
Other time (%) = 0 (0)

Nlocal:    500 ave 500 max 500 min
Histogram: 1 0 0 0 0 0 0 0 0 0
Nghost:    2187 ave 2187 max 2187 min
Histogram: 1 0 0 0 0 0 0 0 0 0
Neighs:    22887 ave 22887 max 22887 min
Histogram: 1 0 0 0 0 0 0 0 0 0

Total # of neighbors = 22887
Ave neighs/atom = 45.774
Neighbor list builds = 0
Dangerous builds = 0
WARNING: Resetting reneighboring criteria during minimization (min.cpp:166)
Memory usage per processor = 2.43658 Mbytes
mystep PotEng Xy Xz Yz Lx 
          44   -7.6557488     0.164318            0            0        7.469 
          44   -7.6557638     0.164318            0            0        7.469 
Loop time of 0.208361 on 1 procs for 25 steps with 500 atoms

Minimization stats:
  Stopping criterion = energy tolerance
  Energy initial, next-to-last, final = 
        -7.65574884255     -7.65576371028     -7.65576377953
  Force two-norm initial, final = 1.40721 0.13659
  Force max component initial, final = 0.135131 0.0245025
  Final line search alpha, max atom move = 0.00195312 4.78564e-05
  Iterations, force evaluations = 25 239

Pair  time (%) = 0.19902 (95.5171)
Neigh time (%) = 0 (0)
Comm  time (%) = 0.0060575 (2.90722)
Outpt time (%) = 0 (0)
Other time (%) = 0.00328302 (1.57564)

Nlocal:    500 ave 500 max 500 min
Histogram: 1 0 0 0 0 0 0 0 0 0
Nghost:    2187 ave 2187 max 2187 min
Histogram: 1 0 0 0 0 0 0 0 0 0
Neighs:    22887 ave 22887 max 22887 min
Histogram: 1 0 0 0 0 0 0 0 0 0

Total # of neighbors = 22887
Ave neighs/atom = 45.774
Neighbor list builds = 0
Dangerous builds = 0
WARNING: No fixes defined, atoms won't move (verlet.cpp:52)
Memory usage per processor = 1.7156 Mbytes
mystep PotEng Xy Xz Yz Lx 
          44   -7.6557638     0.164318            0            0        7.469 
Loop time of 0 on 1 procs for 0 steps with 500 atoms

Pair  time (%) = 0 (0)
Neigh time (%) = 0 (0)
Comm  time (%) = 0 (0)
Outpt time (%) = 0 (0)
Other time (%) = 0 (0)

Nlocal:    500 ave 500 max 500 min
Histogram: 1 0 0 0 0 0 0 0 0 0
Nghost:    2187 ave 2187 max 2187 min
Histogram: 1 0 0 0 0 0 0 0 0 0
Neighs:    22881 ave 22881 max 22881 min
Histogram: 1 0 0 0 0 0 0 0 0 0

Total # of neighbors = 22881
Ave neighs/atom = 45.762
Neighbor list builds = 0
Dangerous builds = 0
Memory usage per processor = 1.7156 Mbytes
mystep PotEng Xy Xz Yz Lx 
          45   -7.6557638     0.164318            0            0        7.469 
          45   -7.6557638     0.171787            0            0        7.469 
Loop time of 0.000884056 on 1 procs for 1 steps with 500 atoms

Pair  time (%) = 0.000832796 (94.2017)
Neigh time (%) = 0 (0)
Comm  time (%) = 2.69413e-05 (3.04746)
Outpt time (%) = 1.00136e-05 (1.13269)
Other time (%) = 1.43051e-05 (1.61812)

Nlocal:    500 ave 500 max 500 min
Histogram: 1 0 0 0 0 0 0 0 0 0
Nghost:    2187 ave 2187 max 2187 min
Histogram: 1 0 0 0 0 0 0 0 0 0
Neighs:    22881 ave 22881 max 22881 min
Histogram: 1 0 0 0 0 0 0 0 0 0

Total # of neighbors = 22881
Ave neighs/atom = 45.762
Neighbor list builds = 0
Dangerous builds = 0
WARNING: No fixes defined, atoms won't move (verlet.cpp:52)
Memory usage per processor = 1.7156 Mbytes
mystep PotEng Xy Xz Yz Lx 
          45   -7.6556441     0.171787            0            0        7.469 
Loop time of 9.53674e-07 on 1 procs for 0 steps with 500 atoms

Pair  time (%) = 0 (0)
Neigh time (%) = 0 (0)
Comm  time (%) = 0 (0)
Outpt time (%) = 0 (0)
Other time (%) = 9.53674e-07 (100)

Nlocal:    500 ave 500 max 500 min
Histogram: 1 0 0 0 0 0 0 0 0 0
Nghost:    2187 ave 2187 max 2187 min
Histogram: 1 0 0 0 0 0 0 0 0 0
Neighs:    22879 ave 22879 max 22879 min
Histogram: 1 0 0 0 0 0 0 0 0 0

Total # of neighbors = 22879
Ave neighs/atom = 45.758
Neighbor list builds = 0
Dangerous builds = 0
[...]
Outpt time (%) = 1.09673e-05 (1.22243)
Other time (%) = 1.28746e-05 (1.43503)

Nlocal:    500 ave 500 max 500 min
Histogram: 1 0 0 0 0 0 0 0 0 0
Nghost:    2164 ave 2164 max 2164 min
Histogram: 1 0 0 0 0 0 0 0 0 0
Neighs:    22922 ave 22922 max 22922 min
Histogram: 1 0 0 0 0 0 0 0 0 0

Total # of neighbors = 22922
Ave neighs/atom = 45.844
Neighbor list builds = 0
Dangerous builds = 0
WARNING: No fixes defined, atoms won't move (verlet.cpp:52)
Memory usage per processor = 1.71699 Mbytes
mystep PotEng Xy Xz Yz Lx 
        1189   -7.6234719    -0.037345            0            0        7.469 
Loop time of 0 on 1 procs for 0 steps with 500 atoms

Pair  time (%) = 0 (0)
Neigh time (%) = 0 (0)
Comm  time (%) = 0 (0)
Outpt time (%) = 0 (0)
Other time (%) = 0 (0)

Nlocal:    500 ave 500 max 500 min
Histogram: 1 0 0 0 0 0 0 0 0 0
Nghost:    2164 ave 2164 max 2164 min
Histogram: 1 0 0 0 0 0 0 0 0 0
Neighs:    22914 ave 22914 max 22914 min
Histogram: 1 0 0 0 0 0 0 0 0 0

Total # of neighbors = 22914
Ave neighs/atom = 45.828
Neighbor list builds = 0
Dangerous builds = 0
WARNING: Resetting reneighboring criteria during minimization (min.cpp:166)
Memory usage per processor = 2.43797 Mbytes
mystep PotEng Xy Xz Yz Lx 
        1190   -7.6234719    -0.037345            0            0        7.469 
        1190    -7.623496    -0.037345            0            0        7.469 
Loop time of 0.425163 on 1 procs for 51 steps with 500 atoms

Minimization stats:
  Stopping criterion = energy tolerance
  Energy initial, next-to-last, final = 
        -7.62347185141     -7.62349597265     -7.62349602826
  Force two-norm initial, final = 1.50175 0.157899
  Force max component initial, final = 0.138506 0.0346855
  Final line search alpha, max atom move = 0.00390625 0.00013549
  Iterations, force evaluations = 51 486

Pair  time (%) = 0.406 (95.4929)
Neigh time (%) = 0 (0)
Comm  time (%) = 0.0125217 (2.94516)
Outpt time (%) = 0 (0)
Other time (%) = 0.00664091 (1.56197)

Nlocal:    500 ave 500 max 500 min
Histogram: 1 0 0 0 0 0 0 0 0 0
Nghost:    2164 ave 2164 max 2164 min
Histogram: 1 0 0 0 0 0 0 0 0 0
Neighs:    22914 ave 22914 max 22914 min
Histogram: 1 0 0 0 0 0 0 0 0 0

Total # of neighbors = 22914
Ave neighs/atom = 45.828
Neighbor list builds = 0
Dangerous builds = 0
WARNING: No fixes defined, atoms won't move (verlet.cpp:52)
Memory usage per processor = 1.71699 Mbytes
mystep PotEng Xy Xz Yz Lx 
        1190    -7.623496    -0.037345            0            0        7.469 
Loop time of 9.53674e-07 on 1 procs for 0 steps with 500 atoms

Pair  time (%) = 0 (0)
Neigh time (%) = 0 (0)
Comm  time (%) = 0 (0)
Outpt time (%) = 0 (0)
Other time (%) = 9.53674e-07 (100)

Nlocal:    500 ave 500 max 500 min
Histogram: 1 0 0 0 0 0 0 0 0 0
Nghost:    2164 ave 2164 max 2164 min
Histogram: 1 0 0 0 0 0 0 0 0 0
Neighs:    22910 ave 22910 max 22910 min
Histogram: 1 0 0 0 0 0 0 0 0 0

Total # of neighbors = 22910
Ave neighs/atom = 45.82
Neighbor list builds = 0
Dangerous builds = 0
Memory usage per processor = 1.71699 Mbytes
mystep PotEng Xy Xz Yz Lx 
        1191    -7.623496    -0.037345            0            0        7.469 
        1191    -7.623496    -0.029876            0            0        7.469 
Loop time of 0.00088191 on 1 procs for 1 steps with 500 atoms

Pair  time (%) = 0.000833035 (94.458)
Neigh time (%) = 0 (0)
Comm  time (%) = 2.59876e-05 (2.94674)
Outpt time (%) = 1.00136e-05 (1.13544)
Other time (%) = 1.28746e-05 (1.45985)

Nlocal:    500 ave 500 max 500 min
Histogram: 1 0 0 0 0 0 0 0 0 0
Nghost:    2164 ave 2164 max 2164 min
Histogram: 1 0 0 0 0 0 0 0 0 0
Neighs:    22910 ave 22910 max 22910 min
Histogram: 1 0 0 0 0 0 0 0 0 0

Total # of neighbors = 22910
Ave neighs/atom = 45.82
Neighbor list builds = 0
Dangerous builds = 0
WARNING: No fixes defined, atoms won't move (verlet.cpp:52)
Memory usage per processor = 1.71699 Mbytes
mystep PotEng Xy Xz Yz Lx 
        1191   -7.6231751    -0.029876            0            0        7.469 
Loop time of 0 on 1 procs for 0 steps with 500 atoms

Pair  time (%) = 0 (0)
Neigh time (%) = 0 (0)
Comm  time (%) = 0 (0)
Outpt time (%) = 0 (0)
Other time (%) = 0 (0)

Nlocal:    500 ave 500 max 500 min
Histogram: 1 0 0 0 0 0 0 0 0 0
Nghost:    2164 ave 2164 max 2164 min
Histogram: 1 0 0 0 0 0 0 0 0 0
Neighs:    22911 ave 22911 max 22911 min
Histogram: 1 0 0 0 0 0 0 0 0 0

Total # of neighbors = 22911
Ave neighs/atom = 45.822
Neighbor list builds = 0
Dangerous builds = 0
WARNING: Resetting reneighboring criteria during minimization (min.cpp:166)
Memory usage per processor = 2.43797 Mbytes
mystep PotEng Xy Xz Yz Lx 
        1192   -7.6231751    -0.029876            0            0        7.469 
        1192   -7.6232026    -0.029876            0            0        7.469 
Loop time of 0.41121 on 1 procs for 50 steps with 500 atoms

Minimization stats:
  Stopping criterion = energy tolerance
  Energy initial, next-to-last, final = 
        -7.62317511977     -7.62320255752     -7.62320260533
  Force two-norm initial, final = 1.48261 0.0972958
  Force max component initial, final = 0.146262 0.0142158
  Final line search alpha, max atom move = 0.000976562 1.38826e-05
  Iterations, force evaluations = 50 470

Pair  time (%) = 0.39277 (95.5156)
Neigh time (%) = 0 (0)
Comm  time (%) = 0.011987 (2.91505)
Outpt time (%) = 0 (0)
Other time (%) = 0.00645328 (1.56934)

Nlocal:    500 ave 500 max 500 min
Histogram: 1 0 0 0 0 0 0 0 0 0
Nghost:    2164 ave 2164 max 2164 min
Histogram: 1 0 0 0 0 0 0 0 0 0
Neighs:    22911 ave 22911 max 22911 min
Histogram: 1 0 0 0 0 0 0 0 0 0

Total # of neighbors = 22911
Ave neighs/atom = 45.822
Neighbor list builds = 0
Dangerous builds = 0
WARNING: No fixes defined, atoms won't move (verlet.cpp:52)
Memory usage per processor = 1.71699 Mbytes
mystep PotEng Xy Xz Yz Lx 
        1192   -7.6232026    -0.029876            0            0        7.469 
Loop time of 0 on 1 procs for 0 steps with 500 atoms

Pair  time (%) = 0 (0)
Neigh time (%) = 0 (0)
Comm  time (%) = 0 (0)
Outpt time (%) = 0 (0)
Other time (%) = 0 (0)

Nlocal:    500 ave 500 max 500 min
Histogram: 1 0 0 0 0 0 0 0 0 0
Nghost:    2160 ave 2160 max 2160 min
Histogram: 1 0 0 0 0 0 0 0 0 0
Neighs:    22914 ave 22914 max 22914 min
Histogram: 1 0 0 0 0 0 0 0 0 0

Total # of neighbors = 22914
Ave neighs/atom = 45.828
Neighbor list builds = 0
Dangerous builds = 0
Memory usage per processor = 1.71699 Mbytes
mystep PotEng Xy Xz Yz Lx 
        1193   -7.6232026    -0.029876            0            0        7.469 
        1193   -7.6232026    -0.022407            0            0        7.469 
Loop time of 0.00088501 on 1 procs for 1 steps with 500 atoms

Pair  time (%) = 0.000836134 (94.4774)
Neigh time (%) = 0 (0)
Comm  time (%) = 2.6226e-05 (2.96336)
Outpt time (%) = 1.00136e-05 (1.13147)
Other time (%) = 1.26362e-05 (1.4278)

Nlocal:    500 ave 500 max 500 min
Histogram: 1 0 0 0 0 0 0 0 0 0
Nghost:    2160 ave 2160 max 2160 min
Histogram: 1 0 0 0 0 0 0 0 0 0
Neighs:    22914 ave 22914 max 22914 min
Histogram: 1 0 0 0 0 0 0 0 0 0

Total # of neighbors = 22914
Ave neighs/atom = 45.828
Neighbor list builds = 0
Dangerous builds = 0
WARNING: No fixes defined, atoms won't move (verlet.cpp:52)
Memory usage per processor = 1.71699 Mbytes
mystep PotEng Xy Xz Yz Lx 
        1193   -7.6228785    -0.022407            0            0        7.469 
Loop time of 0 on 1 procs for 0 steps with 500 atoms

Pair  time (%) = 0 (0)
Neigh time (%) = 0 (0)
Comm  time (%) = 0 (0)
Outpt time (%) = 0 (0)
Other time (%) = 0 (0)

Nlocal:    500 ave 500 max 500 min
Histogram: 1 0 0 0 0 0 0 0 0 0
Nghost:    2160 ave 2160 max 2160 min
Histogram: 1 0 0 0 0 0 0 0 0 0
Neighs:    22913 ave 22913 max 22913 min
Histogram: 1 0 0 0 0 0 0 0 0 0

Total # of neighbors = 22913
Ave neighs/atom = 45.826
Neighbor list builds = 0
Dangerous builds = 0
WARNING: Resetting reneighboring criteria during minimization (min.cpp:166)
Memory usage per processor = 2.43797 Mbytes
mystep PotEng Xy Xz Yz Lx 
        1194   -7.6228785    -0.022407            0            0        7.469 
        1194   -7.6229142    -0.022407            0            0        7.469 
Loop time of 0.520276 on 1 procs for 63 steps with 500 atoms

Minimization stats:
  Stopping criterion = energy tolerance
  Energy initial, next-to-last, final = 
        -7.62287853523     -7.62291412047     -7.62291417445
  Force two-norm initial, final = 1.48796 0.137558
  Force max component initial, final = 0.143468 0.0242566
  Final line search alpha, max atom move = 0.00195312 4.73762e-05
  Iterations, force evaluations = 63 589

Pair  time (%) = 0.493412 (94.8366)
Neigh time (%) = 0.00357509 (0.687152)
Comm  time (%) = 0.0151696 (2.91569)
Outpt time (%) = 0 (0)
Other time (%) = 0.00811934 (1.56058)

Nlocal:    500 ave 500 max 500 min
Histogram: 1 0 0 0 0 0 0 0 0 0
Nghost:    2159 ave 2159 max 2159 min
Histogram: 1 0 0 0 0 0 0 0 0 0
Neighs:    22895 ave 22895 max 22895 min
Histogram: 1 0 0 0 0 0 0 0 0 0

Total # of neighbors = 22895
Ave neighs/atom = 45.79
Neighbor list builds = 2
Dangerous builds = 0
WARNING: No fixes defined, atoms won't move (verlet.cpp:52)
Memory usage per processor = 1.71699 Mbytes
mystep PotEng Xy Xz Yz Lx 
        1194   -7.6229142    -0.022407            0            0        7.469 
Loop time of 1.19209e-06 on 1 procs for 0 steps with 500 atoms

Pair  time (%) = 0 (0)
Neigh time (%) = 0 (0)
Comm  time (%) = 0 (0)
Outpt time (%) = 0 (0)
Other time (%) = 1.19209e-06 (100)

Nlocal:    500 ave 500 max 500 min
Histogram: 1 0 0 0 0 0 0 0 0 0
Nghost:    2164 ave 2164 max 2164 min
Histogram: 1 0 0 0 0 0 0 0 0 0
Neighs:    22916 ave 22916 max 22916 min
Histogram: 1 0 0 0 0 0 0 0 0 0

Total # of neighbors = 22916
Ave neighs/atom = 45.832
Neighbor list builds = 0
Dangerous builds = 0
Memory usage per processor = 1.71699 Mbytes
mystep PotEng Xy Xz Yz Lx 
        1195   -7.6229142    -0.022407            0            0        7.469 
        1195   -7.6229142    -0.014938            0            0        7.469 
Loop time of 0.000898123 on 1 procs for 1 steps with 500 atoms

Pair  time (%) = 0.000848055 (94.4253)
Neigh time (%) = 0 (0)
Comm  time (%) = 2.5034e-05 (2.78736)
Outpt time (%) = 1.09673e-05 (1.22113)
Other time (%) = 1.40667e-05 (1.56623)

Nlocal:    500 ave 500 max 500 min
Histogram: 1 0 0 0 0 0 0 0 0 0
Nghost:    2164 ave 2164 max 2164 min
Histogram: 1 0 0 0 0 0 0 0 0 0
Neighs:    22916 ave 22916 max 22916 min
Histogram: 1 0 0 0 0 0 0 0 0 0

Total # of neighbors = 22916
Ave neighs/atom = 45.832
Neighbor list builds = 0
Dangerous builds = 0
WARNING: No fixes defined, atoms won't move (verlet.cpp:52)
Memory usage per processor = 1.71699 Mbytes
mystep PotEng Xy Xz Yz Lx 
        1195   -7.6225921    -0.014938            0            0        7.469 
Loop time of 0 on 1 procs for 0 steps with 500 atoms

Pair  time (%) = 0 (0)
Neigh time (%) = 0 (0)
Comm  time (%) = 0 (0)
Outpt time (%) = 0 (0)
Other time (%) = 0 (0)

Nlocal:    500 ave 500 max 500 min
Histogram: 1 0 0 0 0 0 0 0 0 0
Nghost:    2164 ave 2164 max 2164 min
Histogram: 1 0 0 0 0 0 0 0 0 0
Neighs:    22918 ave 22918 max 22918 min
Histogram: 1 0 0 0 0 0 0 0 0 0

Total # of neighbors = 22918
Ave neighs/atom = 45.836
Neighbor list builds = 0
Dangerous builds = 0
WARNING: Resetting reneighboring criteria during minimization (min.cpp:166)
Memory usage per processor = 2.43797 Mbytes
mystep PotEng Xy Xz Yz Lx 
        1196   -7.6225921    -0.014938            0            0        7.469 
        1196   -7.6291789    -0.014938            0            0        7.469 
Loop time of 2.8749 on 1 procs for 442 steps with 500 atoms

Minimization stats:
  Stopping criterion = energy tolerance
  Energy initial, next-to-last, final = 
        -7.62259210922     -7.62917887679     -7.62917891652
  Force two-norm initial, final = 1.49137 0.103354
  Force max component initial, final = 0.155868 0.0250681
  Final line search alpha, max atom move = 0.00195312 4.8961e-05
  Iterations, force evaluations = 442 3221

Pair  time (%) = 2.69198 (93.6372)
Neigh time (%) = 0.0501728 (1.7452)
Comm  time (%) = 0.0860355 (2.99264)
Outpt time (%) = 0 (0)
Other time (%) = 0.0467157 (1.62495)

Nlocal:    500 ave 500 max 500 min
Histogram: 1 0 0 0 0 0 0 0 0 0
Nghost:    2182 ave 2182 max 2182 min
Histogram: 1 0 0 0 0 0 0 0 0 0
Neighs:    22938 ave 22938 max 22938 min
Histogram: 1 0 0 0 0 0 0 0 0 0

Total # of neighbors = 22938
Ave neighs/atom = 45.876
Neighbor list builds = 28
Dangerous builds = 0
WARNING: No fixes defined, atoms won't move (verlet.cpp:52)
Memory usage per processor = 1.71699 Mbytes
mystep PotEng Xy Xz Yz Lx 
        1196   -7.6291789    -0.014938            0            0        7.469 
Loop time of 1.19209e-06 on 1 procs for 0 steps with 500 atoms

Pair  time (%) = 0 (0)
Neigh time (%) = 0 (0)
Comm  time (%) = 0 (0)
Outpt time (%) = 0 (0)
Other time (%) = 1.19209e-06 (100)

Nlocal:    500 ave 500 max 500 min
Histogram: 1 0 0 0 0 0 0 0 0 0
Nghost:    2182 ave 2182 max 2182 min
Histogram: 1 0 0 0 0 0 0 0 0 0
Neighs:    22960 ave 22960 max 22960 min
Histogram: 1 0 0 0 0 0 0 0 0 0

Total # of neighbors = 22960
Ave neighs/atom = 45.92
Neighbor list builds = 0
Dangerous builds = 0
Memory usage per processor = 1.71699 Mbytes
mystep PotEng Xy Xz Yz Lx 
        1197   -7.6291789    -0.014938            0            0        7.469 
        1197   -7.6291789    -0.007469            0            0        7.469 
Loop time of 0.00089097 on 1 procs for 1 steps with 500 atoms

Pair  time (%) = 0.000841856 (94.4876)
Neigh time (%) = 0 (0)
Comm  time (%) = 2.69413e-05 (3.02382)
Outpt time (%) = 1.00136e-05 (1.1239)
Other time (%) = 1.21593e-05 (1.36473)

Nlocal:    500 ave 500 max 500 min
Histogram: 1 0 0 0 0 0 0 0 0 0
Nghost:    2182 ave 2182 max 2182 min
Histogram: 1 0 0 0 0 0 0 0 0 0
Neighs:    22960 ave 22960 max 22960 min
Histogram: 1 0 0 0 0 0 0 0 0 0

Total # of neighbors = 22960
Ave neighs/atom = 45.92
Neighbor list builds = 0
Dangerous builds = 0
WARNING: No fixes defined, atoms won't move (verlet.cpp:52)
Memory usage per processor = 1.71699 Mbytes
mystep PotEng Xy Xz Yz Lx 
        1197   -7.6290689    -0.007469            0            0        7.469 
Loop time of 0 on 1 procs for 0 steps with 500 atoms

Pair  time (%) = 0 (0)
Neigh time (%) = 0 (0)
Comm  time (%) = 0 (0)
Outpt time (%) = 0 (0)
Other time (%) = 0 (0)

Nlocal:    500 ave 500 max 500 min
Histogram: 1 0 0 0 0 0 0 0 0 0
Nghost:    2182 ave 2182 max 2182 min
Histogram: 1 0 0 0 0 0 0 0 0 0
Neighs:    22957 ave 22957 max 22957 min
Histogram: 1 0 0 0 0 0 0 0 0 0

Total # of neighbors = 22957
Ave neighs/atom = 45.914
Neighbor list builds = 0
Dangerous builds = 0
WARNING: Resetting reneighboring criteria during minimization (min.cpp:166)
Memory usage per processor = 2.43797 Mbytes
mystep PotEng Xy Xz Yz Lx 
        1198   -7.6290689    -0.007469            0            0        7.469 
        1198   -7.6290796    -0.007469            0            0        7.469 
Loop time of 0.0956151 on 1 procs for 11 steps with 500 atoms

Minimization stats:
  Stopping criterion = energy tolerance
  Energy initial, next-to-last, final = 
        -7.62906886032     -7.62907948571      -7.6290795612
  Force two-norm initial, final = 1.48183 0.163136
  Force max component initial, final = 0.166706 0.0365073
  Final line search alpha, max atom move = 0.00195312 7.13034e-05
  Iterations, force evaluations = 11 108

Pair  time (%) = 0.0913286 (95.5169)
Neigh time (%) = 0 (0)
Comm  time (%) = 0.00280237 (2.93089)
Outpt time (%) = 0 (0)
Other time (%) = 0.00148416 (1.55222)

Nlocal:    500 ave 500 max 500 min
Histogram: 1 0 0 0 0 0 0 0 0 0
Nghost:    2182 ave 2182 max 2182 min
Histogram: 1 0 0 0 0 0 0 0 0 0
Neighs:    22957 ave 22957 max 22957 min
Histogram: 1 0 0 0 0 0 0 0 0 0

Total # of neighbors = 22957
Ave neighs/atom = 45.914
Neighbor list builds = 0
Dangerous builds = 0
WARNING: No fixes defined, atoms won't move (verlet.cpp:52)
Memory usage per processor = 1.71699 Mbytes
mystep PotEng Xy Xz Yz Lx 
        1198   -7.6290796    -0.007469            0            0        7.469 
Loop time of 9.53674e-07 on 1 procs for 0 steps with 500 atoms

Pair  time (%) = 0 (0)
Neigh time (%) = 0 (0)
Comm  time (%) = 0 (0)
Outpt time (%) = 0 (0)
Other time (%) = 9.53674e-07 (100)

Nlocal:    500 ave 500 max 500 min
Histogram: 1 0 0 0 0 0 0 0 0 0
Nghost:    2182 ave 2182 max 2182 min
Histogram: 1 0 0 0 0 0 0 0 0 0
Neighs:    22962 ave 22962 max 22962 min
Histogram: 1 0 0 0 0 0 0 0 0 0

Total # of neighbors = 22962
Ave neighs/atom = 45.924
Neighbor list builds = 0
Dangerous builds = 0
Memory usage per processor = 1.71699 Mbytes
mystep PotEng Xy Xz Yz Lx 
        1199   -7.6290796    -0.007469            0            0        7.469 
        1199   -7.6290796 -8.8817842e-16            0            0        7.469 
Loop time of 0.000887871 on 1 procs for 1 steps with 500 atoms

Pair  time (%) = 0.000838041 (94.3878)
Neigh time (%) = 0 (0)
Comm  time (%) = 2.69413e-05 (3.03437)
Outpt time (%) = 1.00136e-05 (1.12782)
Other time (%) = 1.28746e-05 (1.45005)

Nlocal:    500 ave 500 max 500 min
Histogram: 1 0 0 0 0 0 0 0 0 0
Nghost:    2182 ave 2182 max 2182 min
Histogram: 1 0 0 0 0 0 0 0 0 0
Neighs:    22962 ave 22962 max 22962 min
Histogram: 1 0 0 0 0 0 0 0 0 0

Total # of neighbors = 22962
Ave neighs/atom = 45.924
Neighbor list builds = 0
Dangerous builds = 0
WARNING: No fixes defined, atoms won't move (verlet.cpp:52)
Memory usage per processor = 1.71699 Mbytes
mystep PotEng Xy Xz Yz Lx 
        1199   -7.6289533 -8.8817842e-16            0            0        7.469 
Loop time of 1.19209e-06 on 1 procs for 0 steps with 500 atoms

Pair  time (%) = 0 (0)
Neigh time (%) = 0 (0)
Comm  time (%) = 0 (0)
Outpt time (%) = 0 (0)
Other time (%) = 1.19209e-06 (100)

Nlocal:    500 ave 500 max 500 min
Histogram: 1 0 0 0 0 0 0 0 0 0
Nghost:    2182 ave 2182 max 2182 min
Histogram: 1 0 0 0 0 0 0 0 0 0
Neighs:    22957 ave 22957 max 22957 min
Histogram: 1 0 0 0 0 0 0 0 0 0

Total # of neighbors = 22957
Ave neighs/atom = 45.914
Neighbor list builds = 0
Dangerous builds = 0
WARNING: Resetting reneighboring criteria during minimization (min.cpp:166)
Memory usage per processor = 2.43797 Mbytes
mystep PotEng Xy Xz Yz Lx 
        1200   -7.6289533 -8.8817842e-16            0            0        7.469 
        1200   -7.6289703 -8.8817842e-16            0            0        7.469 
Loop time of 0.249534 on 1 procs for 29 steps with 500 atoms

Minimization stats:
  Stopping criterion = energy tolerance
  Energy initial, next-to-last, final = 
        -7.62895326102     -7.62897028366     -7.62897033679
  Force two-norm initial, final = 1.52609 0.145947
  Force max component initial, final = 0.16818 0.0282448
  Final line search alpha, max atom move = 0.00195312 5.51657e-05
  Iterations, force evaluations = 29 279

Pair  time (%) = 0.234756 (94.0776)
Neigh time (%) = 0.00357294 (1.43185)
Comm  time (%) = 0.00735307 (2.94672)
Outpt time (%) = 0 (0)
Other time (%) = 0.00385237 (1.54383)

Nlocal:    500 ave 500 max 500 min
Histogram: 1 0 0 0 0 0 0 0 0 0
Nghost:    2183 ave 2183 max 2183 min
Histogram: 1 0 0 0 0 0 0 0 0 0
Neighs:    22958 ave 22958 max 22958 min
Histogram: 1 0 0 0 0 0 0 0 0 0

Total # of neighbors = 22958
Ave neighs/atom = 45.916
Neighbor list builds = 2
Dangerous builds = 0
WARNING: No fixes defined, atoms won't move (verlet.cpp:52)
Memory usage per processor = 1.71699 Mbytes
mystep PotEng Xy Xz Yz Lx 
        1200   -7.6289703 -8.8817842e-16            0            0        7.469 
Loop time of 0 on 1 procs for 0 steps with 500 atoms

Pair  time (%) = 0 (0)
Neigh time (%) = 0 (0)
Comm  time (%) = 0 (0)
Outpt time (%) = 0 (0)
Other time (%) = 0 (0)

Nlocal:    500 ave 500 max 500 min
Histogram: 1 0 0 0 0 0 0 0 0 0
Nghost:    2182 ave 2182 max 2182 min
Histogram: 1 0 0 0 0 0 0 0 0 0
Neighs:    22958 ave 22958 max 22958 min
Histogram: 1 0 0 0 0 0 0 0 0 0

Total # of neighbors = 22958
Ave neighs/atom = 45.916
Neighbor list builds = 0
Dangerous builds = 0
