LAMMPS (28 Feb 2012)
Reading data file ...
  triclinic box = (-3.7345 -3.7345 -3.7345) to (3.7345 3.7345 3.7345) with tilt (-8.88178e-16 0 0)
  1 by 1 by 1 MPI processor grid
  500 atoms
  500 velocities
WARNING: No fixes defined, atoms won't move (verlet.cpp:52)
Setting up run ...
Memory usage per processor = 1.7156 Mbytes
Step Temp E_pair E_mol TotEng Press 
       0   0.49133947   -7.6547892            0   -6.9192541  -0.91828237 

Pair  time (%) = 0 (0)
Neigh time (%) = 0 (0)
Comm  time (%) = 0 (0)
Outpt time (%) = 0 (0)
Other time (%) = 0 (0)

Nlocal:    500 ave 500 max 500 min
Histogram: 1 0 0 0 0 0 0 0 0 0
Nghost:    2182 ave 2182 max 2182 min
Histogram: 1 0 0 0 0 0 0 0 0 0
Neighs:    22891 ave 22891 max 22891 min
Histogram: 1 0 0 0 0 0 0 0 0 0

Total # of neighbors = 22891
Ave neighs/atom = 45.782
Neighbor list builds = 0
Dangerous builds = 0
Setting atom values ...
  500 settings made for image
Changing box ...
  triclinic box = (-3.7345 -3.7345 -3.7345) to (3.7345 3.7345 3.7345) with tilt (-8.88178e-16 0 0)
WARNING: Resetting reneighboring criteria during minimization (min.cpp:166)
Setting up minimization ...
Memory usage per processor = 2.43658 Mbytes
Step Temp E_pair E_mol TotEng Press 
       0   0.49133947   -7.6547892            0   -6.9192541  -0.91828237 
       1   0.49133947   -7.6547892            0   -6.9192541  -0.91828237 

Minimization stats:
  Stopping criterion = linesearch alpha is zero
  Energy initial, next-to-last, final = 
        -7.65478924881     -7.65478924881     -7.65478924881
  Force two-norm initial, final = 0.0762375 0.0762375
  Force max component initial, final = 0.0148795 0.0148795
  Final line search alpha, max atom move = 0.000976562 1.45308e-05
  Iterations, force evaluations = 1 11

Pair  time (%) = 0.00995898 (95.6383)
Neigh time (%) = 0 (0)
Comm  time (%) = 0.000297308 (2.85511)
Outpt time (%) = 0 (0)
Other time (%) = 0.000156879 (1.50655)

Nlocal:    500 ave 500 max 500 min
Histogram: 1 0 0 0 0 0 0 0 0 0
Nghost:    2182 ave 2182 max 2182 min
Histogram: 1 0 0 0 0 0 0 0 0 0
Neighs:    22891 ave 22891 max 22891 min
Histogram: 1 0 0 0 0 0 0 0 0 0

Total # of neighbors = 22891
Ave neighs/atom = 45.782
Neighbor list builds = 0
Dangerous builds = 0
WARNING: No fixes defined, atoms won't move (verlet.cpp:52)
Setting up run ...
Memory usage per processor = 1.7156 Mbytes
mystep PotEng Xy Xz Yz Lx 
           0   -7.6547892 -8.8817842e-16            0            0        7.469 

Pair  time (%) = 0 (0)
Neigh time (%) = 0 (0)
Comm  time (%) = 0 (0)
Outpt time (%) = 0 (0)
Other time (%) = 0 (0)

Nlocal:    500 ave 500 max 500 min
Histogram: 1 0 0 0 0 0 0 0 0 0
Nghost:    2182 ave 2182 max 2182 min
Histogram: 1 0 0 0 0 0 0 0 0 0
Neighs:    22891 ave 22891 max 22891 min
Histogram: 1 0 0 0 0 0 0 0 0 0

Total # of neighbors = 22891
Ave neighs/atom = 45.782
Neighbor list builds = 0
Dangerous builds = 0
WARNING: Resetting reneighboring criteria during minimization (min.cpp:166)
Setting up minimization ...
Memory usage per processor = 2.43658 Mbytes
mystep PotEng Xy Xz Yz Lx 
           0   -7.6547892 -8.8817842e-16            0            0        7.469 
           0   -7.6547892 -8.8817842e-16            0            0        7.469 

Minimization stats:
  Stopping criterion = linesearch alpha is zero
  Energy initial, next-to-last, final = 
        -7.65478924881     -7.65478924881     -7.65478924881
  Force two-norm initial, final = 0.0762375 0.0762375
  Force max component initial, final = 0.0148795 0.0148795
  Final line search alpha, max atom move = 0.000976562 1.45308e-05
  Iterations, force evaluations = 1 11

Pair  time (%) = 0.00995684 (95.6747)
Neigh time (%) = 0 (0)
Comm  time (%) = 0.000301361 (2.89576)
Outpt time (%) = 0 (0)
Other time (%) = 0.000148773 (1.42955)

Nlocal:    500 ave 500 max 500 min
Histogram: 1 0 0 0 0 0 0 0 0 0
Nghost:    2182 ave 2182 max 2182 min
Histogram: 1 0 0 0 0 0 0 0 0 0
Neighs:    22891 ave 22891 max 22891 min
Histogram: 1 0 0 0 0 0 0 0 0 0

Total # of neighbors = 22891
Ave neighs/atom = 45.782
Neighbor list builds = 0
Dangerous builds = 0
Setting up run ...
Memory usage per processor = 1.7156 Mbytes
mystep PotEng Xy Xz Yz Lx 
           1   -7.6547892 -8.8817842e-16            0            0        7.469 
           1   -7.6547892     0.007469            0            0        7.469 

Pair  time (%) = 0.000827074 (94.2151)
Neigh time (%) = 0 (0)
Comm  time (%) = 2.59876e-05 (2.96035)
Outpt time (%) = 6.91414e-06 (0.787615)
Other time (%) = 1.78814e-05 (2.03694)

Nlocal:    500 ave 500 max 500 min
Histogram: 1 0 0 0 0 0 0 0 0 0
Nghost:    2182 ave 2182 max 2182 min
Histogram: 1 0 0 0 0 0 0 0 0 0
Neighs:    22891 ave 22891 max 22891 min
Histogram: 1 0 0 0 0 0 0 0 0 0

Total # of neighbors = 22891
Ave neighs/atom = 45.782
Neighbor list builds = 0
Dangerous builds = 0
WARNING: No fixes defined, atoms won't move (verlet.cpp:52)
Setting up run ...
Memory usage per processor = 1.7156 Mbytes
mystep PotEng Xy Xz Yz Lx 
           1   -7.6547483     0.007469            0            0        7.469 

Pair  time (%) = 0 (0)
Neigh time (%) = 0 (0)
Comm  time (%) = 0 (0)
Outpt time (%) = 0 (0)
Other time (%) = 0 (0)

Nlocal:    500 ave 500 max 500 min
Histogram: 1 0 0 0 0 0 0 0 0 0
Nghost:    2182 ave 2182 max 2182 min
Histogram: 1 0 0 0 0 0 0 0 0 0
Neighs:    22892 ave 22892 max 22892 min
Histogram: 1 0 0 0 0 0 0 0 0 0

Total # of neighbors = 22892
Ave neighs/atom = 45.784
Neighbor list builds = 0
Dangerous builds = 0
WARNING: Resetting reneighboring criteria during minimization (min.cpp:166)
Setting up minimization ...
Memory usage per processor = 2.43658 Mbytes
mystep PotEng Xy Xz Yz Lx 
           2   -7.6547483     0.007469            0            0        7.469 
           2   -7.6547601     0.007469            0            0        7.469 

Minimization stats:
  Stopping criterion = energy tolerance
  Energy initial, next-to-last, final = 
        -7.65474833155      -7.6547600546     -7.65476011524
  Force two-norm initial, final = 1.41295 0.175882
  Force max component initial, final = 0.161668 0.0261252
  Final line search alpha, max atom move = 0.00195312 5.10258e-05
  Iterations, force evaluations = 16 157

Pair  time (%) = 0.130901 (95.5753)
Neigh time (%) = 0 (0)
Comm  time (%) = 0.00390244 (2.8493)
Outpt time (%) = 0 (0)
Other time (%) = 0.00215769 (1.5754)

Nlocal:    500 ave 500 max 500 min
Histogram: 1 0 0 0 0 0 0 0 0 0
Nghost:    2182 ave 2182 max 2182 min
Histogram: 1 0 0 0 0 0 0 0 0 0
Neighs:    22892 ave 22892 max 22892 min
Histogram: 1 0 0 0 0 0 0 0 0 0

Total # of neighbors = 22892
Ave neighs/atom = 45.784
Neighbor list builds = 0
Dangerous builds = 0
WARNING: No fixes defined, atoms won't move (verlet.cpp:52)
Setting up run ...
Memory usage per processor = 1.7156 Mbytes
mystep PotEng Xy Xz Yz Lx 
           2   -7.6547601     0.007469            0            0        7.469 

Pair  time (%) = 0 (0)
Neigh time (%) = 0 (0)
Comm  time (%) = 0 (0)
Outpt time (%) = 0 (0)
Other time (%) = 0 (0)

Nlocal:    500 ave 500 max 500 min
Histogram: 1 0 0 0 0 0 0 0 0 0
Nghost:    2182 ave 2182 max 2182 min
Histogram: 1 0 0 0 0 0 0 0 0 0
Neighs:    22886 ave 22886 max 22886 min
Histogram: 1 0 0 0 0 0 0 0 0 0

Total # of neighbors = 22886
Ave neighs/atom = 45.772
Neighbor list builds = 0
Dangerous builds = 0
Setting up run ...
Memory usage per processor = 1.7156 Mbytes
mystep PotEng Xy Xz Yz Lx 
           3   -7.6547601     0.007469            0            0        7.469 
           3   -7.6547601     0.014938            0            0        7.469 

Pair  time (%) = 0.000831842 (94.1955)
Neigh time (%) = 0 (0)
Comm  time (%) = 2.69413e-05 (3.05076)
Outpt time (%) = 5.96046e-06 (0.674946)
Other time (%) = 1.83582e-05 (2.07883)

Nlocal:    500 ave 500 max 500 min
Histogram: 1 0 0 0 0 0 0 0 0 0
Nghost:    2182 ave 2182 max 2182 min
Histogram: 1 0 0 0 0 0 0 0 0 0
Neighs:    22886 ave 22886 max 22886 min
Histogram: 1 0 0 0 0 0 0 0 0 0

Total # of neighbors = 22886
Ave neighs/atom = 45.772
Neighbor list builds = 0
Dangerous builds = 0
WARNING: No fixes defined, atoms won't move (verlet.cpp:52)
Setting up run ...
Memory usage per processor = 1.7156 Mbytes
mystep PotEng Xy Xz Yz Lx 
           3   -7.6547043     0.014938            0            0        7.469 

Pair  time (%) = 0 (0)
Neigh time (%) = 0 (0)
Comm  time (%) = 0 (0)
Outpt time (%) = 0 (0)
Other time (%) = 9.53674e-07 (100)

Nlocal:    500 ave 500 max 500 min
Histogram: 1 0 0 0 0 0 0 0 0 0
Nghost:    2182 ave 2182 max 2182 min
Histogram: 1 0 0 0 0 0 0 0 0 0
Neighs:    22889 ave 22889 max 22889 min
Histogram: 1 0 0 0 0 0 0 0 0 0

Total # of neighbors = 22889
Ave neighs/atom = 45.778
Neighbor list builds = 0
Dangerous builds = 0
WARNING: Resetting reneighboring criteria during minimization (min.cpp:166)
Setting up minimization ...
Memory usage per processor = 2.43658 Mbytes
mystep PotEng Xy Xz Yz Lx 
           4   -7.6547043     0.014938            0            0        7.469 
           4   -7.6548384     0.014938            0            0        7.469 

Minimization stats:
  Stopping criterion = energy tolerance
  Energy initial, next-to-last, final = 
        -7.65470430961      -7.6548383332     -7.65483840795
  Force two-norm initial, final = 1.37047 0.129484
  Force max component initial, final = 0.168688 0.0369057
  Final line search alpha, max atom move = 0.00195312 7.20814e-05
  Iterations, force evaluations = 163 1429

Pair  time (%) = 1.1843 (94.9525)
Neigh time (%) = 0.00701618 (0.562531)
Comm  time (%) = 0.0360286 (2.88864)
Outpt time (%) = 0 (0)
Other time (%) = 0.0199099 (1.5963)

Nlocal:    500 ave 500 max 500 min
Histogram: 1 0 0 0 0 0 0 0 0 0
Nghost:    2190 ave 2190 max 2190 min
Histogram: 1 0 0 0 0 0 0 0 0 0
Neighs:    22909 ave 22909 max 22909 min
Histogram: 1 0 0 0 0 0 0 0 0 0

Total # of neighbors = 22909
Ave neighs/atom = 45.818
Neighbor list builds = 4
Dangerous builds = 0
WARNING: No fixes defined, atoms won't move (verlet.cpp:52)
Setting up run ...
Memory usage per processor = 1.7156 Mbytes
mystep PotEng Xy Xz Yz Lx 
           4   -7.6548384     0.014938            0            0        7.469 

Pair  time (%) = 0 (0)
Neigh time (%) = 0 (0)
Comm  time (%) = 0 (0)
Outpt time (%) = 0 (0)
Other time (%) = 9.53674e-07 (100)

Nlocal:    500 ave 500 max 500 min
Histogram: 1 0 0 0 0 0 0 0 0 0
Nghost:    2182 ave 2182 max 2182 min
Histogram: 1 0 0 0 0 0 0 0 0 0
Neighs:    22913 ave 22913 max 22913 min
Histogram: 1 0 0 0 0 0 0 0 0 0

Total # of neighbors = 22913
Ave neighs/atom = 45.826
Neighbor list builds = 0
Dangerous builds = 0
Setting up run ...
Memory usage per processor = 1.7156 Mbytes
mystep PotEng Xy Xz Yz Lx 
           5   -7.6548384     0.014938            0            0        7.469 
           5   -7.6548384     0.022407            0            0        7.469 

Pair  time (%) = 0.000826836 (94.4959)
Neigh time (%) = 0 (0)
Comm  time (%) = 2.5034e-05 (2.86104)
Outpt time (%) = 4.76837e-06 (0.544959)
Other time (%) = 1.83582e-05 (2.09809)

Nlocal:    500 ave 500 max 500 min
Histogram: 1 0 0 0 0 0 0 0 0 0
Nghost:    2182 ave 2182 max 2182 min
Histogram: 1 0 0 0 0 0 0 0 0 0
Neighs:    22913 ave 22913 max 22913 min
Histogram: 1 0 0 0 0 0 0 0 0 0

Total # of neighbors = 22913
Ave neighs/atom = 45.826
Neighbor list builds = 0
Dangerous builds = 0
WARNING: No fixes defined, atoms won't move (verlet.cpp:52)
Setting up run ...
Memory usage per processor = 1.7156 Mbytes
mystep PotEng Xy Xz Yz Lx 
           5   -7.6547998     0.022407            0            0        7.469 

Pair  time (%) = 0 (0)
Neigh time (%) = 0 (0)
Comm  time (%) = 0 (0)
Outpt time (%) = 0 (0)
Other time (%) = 0 (0)

Nlocal:    500 ave 500 max 500 min
Histogram: 1 0 0 0 0 0 0 0 0 0
Nghost:    2182 ave 2182 max 2182 min
Histogram: 1 0 0 0 0 0 0 0 0 0
Neighs:    22912 ave 22912 max 22912 min
Histogram: 1 0 0 0 0 0 0 0 0 0

Total # of neighbors = 22912
Ave neighs/atom = 45.824
Neighbor list builds = 0
Dangerous builds = 0
WARNING: Resetting reneighboring criteria during minimization (min.cpp:166)
Setting up minimization ...
Memory usage per processor = 2.43658 Mbytes
mystep PotEng Xy Xz Yz Lx 
           6   -7.6547998     0.022407            0            0        7.469 
           6   -7.6561653     0.022407            0            0        7.469 

Minimization stats:
  Stopping criterion = energy tolerance
  Energy initial, next-to-last, final = 
        -7.65479980477     -7.65616527711     -7.65616532172
  Force two-norm initial, final = 1.4067 0.13874
  Force max component initial, final = 0.16538 0.0500869
  Final line search alpha, max atom move = 0.00195312 9.78259e-05
  Iterations, force evaluations = 173 1391

Pair  time (%) = 1.15326 (93.0326)
Neigh time (%) = 0.0297768 (2.40207)
Comm  time (%) = 0.0367322 (2.96316)
Outpt time (%) = 0 (0)
Other time (%) = 0.019861 (1.60217)

Nlocal:    500 ave 500 max 500 min
Histogram: 1 0 0 0 0 0 0 0 0 0
Nghost:    2182 ave 2182 max 2182 min
Histogram: 1 0 0 0 0 0 0 0 0 0
Neighs:    22914 ave 22914 max 22914 min
Histogram: 1 0 0 0 0 0 0 0 0 0

Total # of neighbors = 22914
Ave neighs/atom = 45.828
Neighbor list builds = 17
Dangerous builds = 0
WARNING: No fixes defined, atoms won't move (verlet.cpp:52)
Setting up run ...
Memory usage per processor = 1.7156 Mbytes
mystep PotEng Xy Xz Yz Lx 
           6   -7.6561653     0.022407            0            0        7.469 

Pair  time (%) = 0 (0)
Neigh time (%) = 0 (0)
Comm  time (%) = 0 (0)
Outpt time (%) = 0 (0)
Other time (%) = 0 (0)

Nlocal:    500 ave 500 max 500 min
Histogram: 1 0 0 0 0 0 0 0 0 0
Nghost:    2174 ave 2174 max 2174 min
Histogram: 1 0 0 0 0 0 0 0 0 0
Neighs:    22909 ave 22909 max 22909 min
Histogram: 1 0 0 0 0 0 0 0 0 0

Total # of neighbors = 22909
Ave neighs/atom = 45.818
Neighbor list builds = 0
Dangerous builds = 0
Setting up run ...
Memory usage per processor = 1.7156 Mbytes
mystep PotEng Xy Xz Yz Lx 
           7   -7.6561653     0.022407            0            0        7.469 
           7   -7.6561653     0.029876            0            0        7.469 

Pair  time (%) = 0.000825882 (94.8262)
Neigh time (%) = 0 (0)
Comm  time (%) = 2.5034e-05 (2.87435)
Outpt time (%) = 5.00679e-06 (0.57487)
Other time (%) = 1.50204e-05 (1.72461)

Nlocal:    500 ave 500 max 500 min
Histogram: 1 0 0 0 0 0 0 0 0 0
Nghost:    2174 ave 2174 max 2174 min
Histogram: 1 0 0 0 0 0 0 0 0 0
Neighs:    22909 ave 22909 max 22909 min
Histogram: 1 0 0 0 0 0 0 0 0 0

Total # of neighbors = 22909
Ave neighs/atom = 45.818
Neighbor list builds = 0
Dangerous builds = 0
WARNING: No fixes defined, atoms won't move (verlet.cpp:52)
Setting up run ...
Memory usage per processor = 1.7156 Mbytes
mystep PotEng Xy Xz Yz Lx 
           7   -7.6561464     0.029876            0            0        7.469 

Pair  time (%) = 0 (0)
Neigh time (%) = 0 (0)
Comm  time (%) = 0 (0)
Outpt time (%) = 0 (0)
Other time (%) = 0 (0)

Nlocal:    500 ave 500 max 500 min
Histogram: 1 0 0 0 0 0 0 0 0 0
Nghost:    2174 ave 2174 max 2174 min
Histogram: 1 0 0 0 0 0 0 0 0 0
Neighs:    22908 ave 22908 max 22908 min
Histogram: 1 0 0 0 0 0 0 0 0 0

Total # of neighbors = 22908
Ave neighs/atom = 45.816
Neighbor list builds = 0
Dangerous builds = 0
WARNING: Resetting reneighboring criteria during minimization (min.cpp:166)
Setting up minimization ...
Memory usage per processor = 2.43658 Mbytes
mystep PotEng Xy Xz Yz Lx 
           8   -7.6561464     0.029876            0            0        7.469 
           8   -7.6561589     0.029876            0            0        7.469 

Minimization stats:
  Stopping criterion = energy tolerance
  Energy initial, next-to-last, final = 
        -7.65614640075      -7.6561588222     -7.65615889607
  Force two-norm initial, final = 1.40445 0.161136
  Force max component initial, final = 0.143805 0.0384652
  Final line search alpha, max atom move = 0.00113419 4.36268e-05
  Iterations, force evaluations = 18 172

Pair  time (%) = 0.143274 (95.5795)
Neigh time (%) = 0 (0)
Comm  time (%) = 0.00426292 (2.84385)
Outpt time (%) = 0 (0)
Other time (%) = 0.00236344 (1.57668)

Nlocal:    500 ave 500 max 500 min
Histogram: 1 0 0 0 0 0 0 0 0 0
Nghost:    2174 ave 2174 max 2174 min
Histogram: 1 0 0 0 0 0 0 0 0 0
Neighs:    22908 ave 22908 max 22908 min
Histogram: 1 0 0 0 0 0 0 0 0 0

Total # of neighbors = 22908
Ave neighs/atom = 45.816
Neighbor list builds = 0
Dangerous builds = 0
WARNING: No fixes defined, atoms won't move (verlet.cpp:52)
Setting up run ...
Memory usage per processor = 1.7156 Mbytes
mystep PotEng Xy Xz Yz Lx 
           8   -7.6561589     0.029876            0            0        7.469 

Pair  time (%) = 0 (0)
Neigh time (%) = 0 (0)
Comm  time (%) = 0 (0)
Outpt time (%) = 0 (0)
Other time (%) = 0 (0)

Nlocal:    500 ave 500 max 500 min
Histogram: 1 0 0 0 0 0 0 0 0 0
Nghost:    2174 ave 2174 max 2174 min
Histogram: 1 0 0 0 0 0 0 0 0 0
Neighs:    22907 ave 22907 max 22907 min
Histogram: 1 0 0 0 0 0 0 0 0 0

Total # of neighbors = 22907
Ave neighs/atom = 45.814
Neighbor list builds = 0
Dangerous builds = 0
Setting up run ...
Memory usage per processor = 1.7156 Mbytes
mystep PotEng Xy Xz Yz Lx 
           9   -7.6561589     0.029876            0            0        7.469 
           9   -7.6561589     0.037345            0            0        7.469 

Pair  time (%) = 0.000826836 (94.4959)
Neigh time (%) = 0 (0)
Comm  time (%) = 2.5034e-05 (2.86104)
Outpt time (%) = 5.96046e-06 (0.681199)
Other time (%) = 1.71661e-05 (1.96185)

Nlocal:    500 ave 500 max 500 min
Histogram: 1 0 0 0 0 0 0 0 0 0
Nghost:    2174 ave 2174 max 2174 min
Histogram: 1 0 0 0 0 0 0 0 0 0
Neighs:    22907 ave 22907 max 22907 min
Histogram: 1 0 0 0 0 0 0 0 0 0

Total # of neighbors = 22907
Ave neighs/atom = 45.814
Neighbor list builds = 0
Dangerous builds = 0
WARNING: No fixes defined, atoms won't move (verlet.cpp:52)
Setting up run ...
Memory usage per processor = 1.7156 Mbytes
mystep PotEng Xy Xz Yz Lx 
           9   -7.6561269     0.037345            0            0        7.469 

Pair  time (%) = 0 (0)
Neigh time (%) = 0 (0)
Comm  time (%) = 0 (0)
Outpt time (%) = 0 (0)
Other time (%) = 0 (0)

Nlocal:    500 ave 500 max 500 min
Histogram: 1 0 0 0 0 0 0 0 0 0
Nghost:    2174 ave 2174 max 2174 min
Histogram: 1 0 0 0 0 0 0 0 0 0
Neighs:    22903 ave 22903 max 22903 min
Histogram: 1 0 0 0 0 0 0 0 0 0

Total # of neighbors = 22903
Ave neighs/atom = 45.806
Neighbor list builds = 0
Dangerous builds = 0
WARNING: Resetting reneighboring criteria during minimization (min.cpp:166)
Setting up minimization ...
Memory usage per processor = 2.43658 Mbytes
mystep PotEng Xy Xz Yz Lx 
          10   -7.6561269     0.037345            0            0        7.469 
          10   -7.6561436     0.037345            0            0        7.469 

Minimization stats:
  Stopping criterion = energy tolerance
  Energy initial, next-to-last, final = 
        -7.65612694501     -7.65614351747     -7.65614357269
  Force two-norm initial, final = 1.43165 0.112553
  Force max component initial, final = 0.153059 0.0190559
  Final line search alpha, max atom move = 0.00195312 3.72186e-05
  Iterations, force evaluations = 23 218

Pair  time (%) = 0.18128 (95.5679)
Neigh time (%) = 0 (0)
Comm  time (%) = 0.00542903 (2.8621)
Outpt time (%) = 0 (0)
Other time (%) = 0.00297809 (1.57)

Nlocal:    500 ave 500 max 500 min
Histogram: 1 0 0 0 0 0 0 0 0 0
Nghost:    2174 ave 2174 max 2174 min
Histogram: 1 0 0 0 0 0 0 0 0 0
Neighs:    22903 ave 22903 max 22903 min
Histogram: 1 0 0 0 0 0 0 0 0 0

Total # of neighbors = 22903
Ave neighs/atom = 45.806
Neighbor list builds = 0
Dangerous builds = 0
WARNING: No fixes defined, atoms won't move (verlet.cpp:52)
Setting up run ...
Memory usage per processor = 1.7156 Mbytes
mystep PotEng Xy Xz Yz Lx 
          10   -7.6561436     0.037345            0            0        7.469 

Pair  time (%) = 0 (0)
Neigh time (%) = 0 (0)
Comm  time (%) = 0 (0)
Outpt time (%) = 0 (0)
Other time (%) = 0 (0)

Nlocal:    500 ave 500 max 500 min
Histogram: 1 0 0 0 0 0 0 0 0 0
Nghost:    2174 ave 2174 max 2174 min
Histogram: 1 0 0 0 0 0 0 0 0 0
Neighs:    22911 ave 22911 max 22911 min
Histogram: 1 0 0 0 0 0 0 0 0 0

Total # of neighbors = 22911
Ave neighs/atom = 45.822
Neighbor list builds = 0
Dangerous builds = 0
Setting up run ...
Memory usage per processor = 1.7156 Mbytes
mystep PotEng Xy Xz Yz Lx 
          11   -7.6561436     0.037345            0            0        7.469 
          11   -7.6561436     0.044814            0            0        7.469 

Pair  time (%) = 0.000827789 (94.9412)
Neigh time (%) = 0 (0)
Comm  time (%) = 2.5034e-05 (2.87121)
Outpt time (%) = 5.96046e-06 (0.68362)
Other time (%) = 1.3113e-05 (1.50396)

Nlocal:    500 ave 500 max 500 min
Histogram: 1 0 0 0 0 0 0 0 0 0
Nghost:    2174 ave 2174 max 2174 min
Histogram: 1 0 0 0 0 0 0 0 0 0
Neighs:    22911 ave 22911 max 22911 min
Histogram: 1 0 0 0 0 0 0 0 0 0

Total # of neighbors = 22911
Ave neighs/atom = 45.822
Neighbor list builds = 0
Dangerous builds = 0
WARNING: No fixes defined, atoms won't move (verlet.cpp:52)
Setting up run ...
Memory usage per processor = 1.7156 Mbytes
mystep PotEng Xy Xz Yz Lx 
          11   -7.6561024     0.044814            0            0        7.469 

Pair  time (%) = 0 (0)
Neigh time (%) = 0 (0)
Comm  time (%) = 0 (0)
Outpt time (%) = 0 (0)
Other time (%) = 0 (0)

Nlocal:    500 ave 500 max 500 min
Histogram: 1 0 0 0 0 0 0 0 0 0
Nghost:    2174 ave 2174 max 2174 min
Histogram: 1 0 0 0 0 0 0 0 0 0
Neighs:    22910 ave 22910 max 22910 min
Histogram: 1 0 0 0 0 0 0 0 0 0

Total # of neighbors = 22910
Ave neighs/atom = 45.82
Neighbor list builds = 0
Dangerous builds = 0
WARNING: Resetting reneighboring criteria during minimization (min.cpp:166)
Setting up minimization ...
Memory usage per processor = 2.43658 Mbytes
mystep PotEng Xy Xz Yz Lx 
          12   -7.6561024     0.044814            0            0        7.469 
          12   -7.6561202     0.044814            0            0        7.469 

Minimization stats:
  Stopping criterion = energy tolerance
  Energy initial, next-to-last, final = 
        -7.65610236632     -7.65612017622     -7.65612024603
  Force two-norm initial, final = 1.41624 0.250638
  Force max component initial, final = 0.139135 0.100551
  Final line search alpha, max atom move = 0.00390625 0.000392779
  Iterations, force evaluations = 36 345

Pair  time (%) = 0.286614 (95.5744)
Neigh time (%) = 0 (0)
Comm  time (%) = 0.00857139 (2.85822)
Outpt time (%) = 0 (0)
Other time (%) = 0.00470042 (1.5674)

Nlocal:    500 ave 500 max 500 min
Histogram: 1 0 0 0 0 0 0 0 0 0
Nghost:    2174 ave 2174 max 2174 min
Histogram: 1 0 0 0 0 0 0 0 0 0
Neighs:    22910 ave 22910 max 22910 min
Histogram: 1 0 0 0 0 0 0 0 0 0

Total # of neighbors = 22910
Ave neighs/atom = 45.82
Neighbor list builds = 0
Dangerous builds = 0
WARNING: No fixes defined, atoms won't move (verlet.cpp:52)
Setting up run ...
Memory usage per processor = 1.7156 Mbytes
mystep PotEng Xy Xz Yz Lx 
          12   -7.6561202     0.044814            0            0        7.469 

Pair  time (%) = 0 (0)
Neigh time (%) = 0 (0)
Comm  time (%) = 0 (0)
Outpt time (%) = 0 (0)
Other time (%) = 0 (0)

Nlocal:    500 ave 500 max 500 min
Histogram: 1 0 0 0 0 0 0 0 0 0
Nghost:    2174 ave 2174 max 2174 min
Histogram: 1 0 0 0 0 0 0 0 0 0
Neighs:    22909 ave 22909 max 22909 min
Histogram: 1 0 0 0 0 0 0 0 0 0

Total # of neighbors = 22909
Ave neighs/atom = 45.818
Neighbor list builds = 0
Dangerous builds = 0
Setting up run ...
Memory usage per processor = 1.7156 Mbytes
mystep PotEng Xy Xz Yz Lx 
          13   -7.6561202     0.044814            0            0        7.469 
          13   -7.6561202     0.052283            0            0        7.469 

Pair  time (%) = 0.000828028 (94.8389)
Neigh time (%) = 0 (0)
Comm  time (%) = 2.5034e-05 (2.86729)
Outpt time (%) = 5.96046e-06 (0.682687)
Other time (%) = 1.40667e-05 (1.61114)

Nlocal:    500 ave 500 max 500 min
Histogram: 1 0 0 0 0 0 0 0 0 0
Nghost:    2174 ave 2174 max 2174 min
Histogram: 1 0 0 0 0 0 0 0 0 0
Neighs:    22909 ave 22909 max 22909 min
Histogram: 1 0 0 0 0 0 0 0 0 0

Total # of neighbors = 22909
Ave neighs/atom = 45.818
Neighbor list builds = 0
Dangerous builds = 0
WARNING: No fixes defined, atoms won't move (verlet.cpp:52)
Setting up run ...
Memory usage per processor = 1.7156 Mbytes
mystep PotEng Xy Xz Yz Lx 
          13   -7.6560698     0.052283            0            0        7.469 

Pair  time (%) = 0 (0)
Neigh time (%) = 0 (0)
Comm  time (%) = 0 (0)
Outpt time (%) = 0 (0)
Other time (%) = 9.53674e-07 (100)

Nlocal:    500 ave 500 max 500 min
Histogram: 1 0 0 0 0 0 0 0 0 0
Nghost:    2174 ave 2174 max 2174 min
Histogram: 1 0 0 0 0 0 0 0 0 0
Neighs:    22911 ave 22911 max 22911 min
Histogram: 1 0 0 0 0 0 0 0 0 0

Total # of neighbors = 22911
Ave neighs/atom = 45.822
Neighbor list builds = 0
Dangerous builds = 0
WARNING: Resetting reneighboring criteria during minimization (min.cpp:166)
Setting up minimization ...
Memory usage per processor = 2.43658 Mbytes
mystep PotEng Xy Xz Yz Lx 
          14   -7.6560698     0.052283            0            0        7.469 
          14    -7.656088     0.052283            0            0        7.469 

Minimization stats:
  Stopping criterion = energy tolerance
  Energy initial, next-to-last, final = 
        -7.65606982238     -7.65608790343     -7.65608797706
  Force two-norm initial, final = 1.41946 0.165776
  Force max component initial, final = 0.147645 0.0405856
  Final line search alpha, max atom move = 0.00195312 7.92687e-05
  Iterations, force evaluations = 23 218

Pair  time (%) = 0.18132 (95.5645)
Neigh time (%) = 0 (0)
Comm  time (%) = 0.00541377 (2.85332)
Outpt time (%) = 0 (0)
Other time (%) = 0.00300193 (1.58216)

Nlocal:    500 ave 500 max 500 min
Histogram: 1 0 0 0 0 0 0 0 0 0
Nghost:    2174 ave 2174 max 2174 min
Histogram: 1 0 0 0 0 0 0 0 0 0
Neighs:    22911 ave 22911 max 22911 min
Histogram: 1 0 0 0 0 0 0 0 0 0

Total # of neighbors = 22911
Ave neighs/atom = 45.822
Neighbor list builds = 0
Dangerous builds = 0
WARNING: No fixes defined, atoms won't move (verlet.cpp:52)
Setting up run ...
Memory usage per processor = 1.7156 Mbytes
mystep PotEng Xy Xz Yz Lx 
          14    -7.656088     0.052283            0            0        7.469 

Pair  time (%) = 0 (0)
Neigh time (%) = 0 (0)
Comm  time (%) = 0 (0)
Outpt time (%) = 0 (0)
Other time (%) = 0 (0)

Nlocal:    500 ave 500 max 500 min
Histogram: 1 0 0 0 0 0 0 0 0 0
Nghost:    2174 ave 2174 max 2174 min
Histogram: 1 0 0 0 0 0 0 0 0 0
Neighs:    22914 ave 22914 max 22914 min
Histogram: 1 0 0 0 0 0 0 0 0 0

Total # of neighbors = 22914
Ave neighs/atom = 45.828
Neighbor list builds = 0
Dangerous builds = 0
Setting up run ...
Memory usage per processor = 1.7156 Mbytes
mystep PotEng Xy Xz Yz Lx 
          15    -7.656088     0.052283            0            0        7.469 
          15    -7.656088     0.059752            0            0        7.469 

Pair  time (%) = 0.000828028 (94.8389)
Neigh time (%) = 0 (0)
Comm  time (%) = 2.5034e-05 (2.86729)
Outpt time (%) = 7.15256e-06 (0.819224)
Other time (%) = 1.28746e-05 (1.4746)

Nlocal:    500 ave 500 max 500 min
Histogram: 1 0 0 0 0 0 0 0 0 0
Nghost:    2174 ave 2174 max 2174 min
Histogram: 1 0 0 0 0 0 0 0 0 0
Neighs:    22914 ave 22914 max 22914 min
Histogram: 1 0 0 0 0 0 0 0 0 0

Total # of neighbors = 22914
Ave neighs/atom = 45.828
Neighbor list builds = 0
Dangerous builds = 0
WARNING: No fixes defined, atoms won't move (verlet.cpp:52)
Setting up run ...
Memory usage per processor = 1.7156 Mbytes
mystep PotEng Xy Xz Yz Lx 
          15   -7.6560301     0.059752            0            0        7.469 

Pair  time (%) = 0 (0)
Neigh time (%) = 0 (0)
Comm  time (%) = 0 (0)
Outpt time (%) = 0 (0)
Other time (%) = 0 (0)

Nlocal:    500 ave 500 max 500 min
Histogram: 1 0 0 0 0 0 0 0 0 0
Nghost:    2174 ave 2174 max 2174 min
Histogram: 1 0 0 0 0 0 0 0 0 0
Neighs:    22923 ave 22923 max 22923 min
Histogram: 1 0 0 0 0 0 0 0 0 0

Total # of neighbors = 22923
Ave neighs/atom = 45.846
Neighbor list builds = 0
Dangerous builds = 0
WARNING: Resetting reneighboring criteria during minimization (min.cpp:166)
Setting up minimization ...
Memory usage per processor = 2.43658 Mbytes
mystep PotEng Xy Xz Yz Lx 
          16   -7.6560301     0.059752            0            0        7.469 
          16   -7.6560687     0.059752            0            0        7.469 

Minimization stats:
  Stopping criterion = energy tolerance
  Energy initial, next-to-last, final = 
        -7.65603008627     -7.65606863691     -7.65606870693
  Force two-norm initial, final = 1.4385 0.171782
  Force max component initial, final = 0.148371 0.0516317
  Final line search alpha, max atom move = 0.00195312 0.000100843
  Iterations, force evaluations = 70 643

Pair  time (%) = 0.533861 (94.2918)
Neigh time (%) = 0.00702596 (1.24094)
Comm  time (%) = 0.0164461 (2.90475)
Outpt time (%) = 0 (0)
Other time (%) = 0.00884676 (1.56253)

Nlocal:    500 ave 500 max 500 min
Histogram: 1 0 0 0 0 0 0 0 0 0
Nghost:    2178 ave 2178 max 2178 min
Histogram: 1 0 0 0 0 0 0 0 0 0
Neighs:    22920 ave 22920 max 22920 min
Histogram: 1 0 0 0 0 0 0 0 0 0

Total # of neighbors = 22920
Ave neighs/atom = 45.84
Neighbor list builds = 4
Dangerous builds = 0
WARNING: No fixes defined, atoms won't move (verlet.cpp:52)
Setting up run ...
Memory usage per processor = 1.7156 Mbytes
mystep PotEng Xy Xz Yz Lx 
          16   -7.6560687     0.059752            0            0        7.469 

Pair  time (%) = 0 (0)
Neigh time (%) = 0 (0)
Comm  time (%) = 0 (0)
Outpt time (%) = 0 (0)
Other time (%) = 0 (0)

Nlocal:    500 ave 500 max 500 min
Histogram: 1 0 0 0 0 0 0 0 0 0
Nghost:    2178 ave 2178 max 2178 min
Histogram: 1 0 0 0 0 0 0 0 0 0
Neighs:    22910 ave 22910 max 22910 min
Histogram: 1 0 0 0 0 0 0 0 0 0

Total # of neighbors = 22910
Ave neighs/atom = 45.82
Neighbor list builds = 0
Dangerous builds = 0
Setting up run ...
Memory usage per processor = 1.7156 Mbytes
mystep PotEng Xy Xz Yz Lx 
          17   -7.6560687     0.059752            0            0        7.469 
          17   -7.6560687     0.067221            0            0        7.469 

Pair  time (%) = 0.000831842 (94.8613)
Neigh time (%) = 0 (0)
Comm  time (%) = 2.5034e-05 (2.85481)
Outpt time (%) = 6.91414e-06 (0.788472)
Other time (%) = 1.3113e-05 (1.49538)

Nlocal:    500 ave 500 max 500 min
Histogram: 1 0 0 0 0 0 0 0 0 0
Nghost:    2178 ave 2178 max 2178 min
Histogram: 1 0 0 0 0 0 0 0 0 0
Neighs:    22910 ave 22910 max 22910 min
Histogram: 1 0 0 0 0 0 0 0 0 0

Total # of neighbors = 22910
Ave neighs/atom = 45.82
Neighbor list builds = 0
Dangerous builds = 0
WARNING: No fixes defined, atoms won't move (verlet.cpp:52)
Setting up run ...
Memory usage per processor = 1.7156 Mbytes
mystep PotEng Xy Xz Yz Lx 
          17   -7.6560157     0.067221            0            0        7.469 

Pair  time (%) = 0 (0)
Neigh time (%) = 0 (0)
Comm  time (%) = 0 (0)
Outpt time (%) = 0 (0)
Other time (%) = 0 (0)

Nlocal:    500 ave 500 max 500 min
Histogram: 1 0 0 0 0 0 0 0 0 0
Nghost:    2178 ave 2178 max 2178 min
Histogram: 1 0 0 0 0 0 0 0 0 0
Neighs:    22918 ave 22918 max 22918 min
Histogram: 1 0 0 0 0 0 0 0 0 0

Total # of neighbors = 22918
Ave neighs/atom = 45.836
Neighbor list builds = 0
Dangerous builds = 0
WARNING: Resetting reneighboring criteria during minimization (min.cpp:166)
Setting up minimization ...
Memory usage per processor = 2.43658 Mbytes
mystep PotEng Xy Xz Yz Lx 
          18   -7.6560157     0.067221            0            0        7.469 
          18   -7.6562096     0.067221            0            0        7.469 

Minimization stats:
  Stopping criterion = energy tolerance
  Energy initial, next-to-last, final = 
        -7.65601565843     -7.65620955649     -7.65620963094
  Force two-norm initial, final = 1.42166 0.130096
  Force max component initial, final = 0.171483 0.0303203
  Final line search alpha, max atom move = 0.00195312 5.92194e-05
  Iterations, force evaluations = 97 813

Pair  time (%) = 0.674842 (95.2618)
Neigh time (%) = 0.00174999 (0.247032)
Comm  time (%) = 0.0204787 (2.89081)
Outpt time (%) = 0 (0)
Other time (%) = 0.0113368 (1.60032)

Nlocal:    500 ave 500 max 500 min
Histogram: 1 0 0 0 0 0 0 0 0 0
Nghost:    2184 ave 2184 max 2184 min
Histogram: 1 0 0 0 0 0 0 0 0 0
Neighs:    22891 ave 22891 max 22891 min
Histogram: 1 0 0 0 0 0 0 0 0 0

Total # of neighbors = 22891
Ave neighs/atom = 45.782
Neighbor list builds = 1
Dangerous builds = 0
WARNING: No fixes defined, atoms won't move (verlet.cpp:52)
Setting up run ...
Memory usage per processor = 1.7156 Mbytes
mystep PotEng Xy Xz Yz Lx 
          18   -7.6562096     0.067221            0            0        7.469 

Pair  time (%) = 0 (0)
Neigh time (%) = 0 (0)
Comm  time (%) = 0 (0)
Outpt time (%) = 0 (0)
Other time (%) = 0 (0)

Nlocal:    500 ave 500 max 500 min
Histogram: 1 0 0 0 0 0 0 0 0 0
Nghost:    2180 ave 2180 max 2180 min
Histogram: 1 0 0 0 0 0 0 0 0 0
Neighs:    22896 ave 22896 max 22896 min
Histogram: 1 0 0 0 0 0 0 0 0 0

Total # of neighbors = 22896
Ave neighs/atom = 45.792
Neighbor list builds = 0
Dangerous builds = 0
Setting up run ...
Memory usage per processor = 1.7156 Mbytes
mystep PotEng Xy Xz Yz Lx 
          19   -7.6562096     0.067221            0            0        7.469 
          19   -7.6562096      0.07469            0            0        7.469 

Pair  time (%) = 0.000828981 (94.8445)
Neigh time (%) = 0 (0)
Comm  time (%) = 2.5034e-05 (2.86416)
Outpt time (%) = 5.96046e-06 (0.681942)
Other time (%) = 1.40667e-05 (1.60938)

Nlocal:    500 ave 500 max 500 min
Histogram: 1 0 0 0 0 0 0 0 0 0
Nghost:    2180 ave 2180 max 2180 min
Histogram: 1 0 0 0 0 0 0 0 0 0
Neighs:    22896 ave 22896 max 22896 min
Histogram: 1 0 0 0 0 0 0 0 0 0

Total # of neighbors = 22896
Ave neighs/atom = 45.792
Neighbor list builds = 0
Dangerous builds = 0
WARNING: No fixes defined, atoms won't move (verlet.cpp:52)
Setting up run ...
Memory usage per processor = 1.7156 Mbytes
mystep PotEng Xy Xz Yz Lx 
          19   -7.6562119      0.07469            0            0        7.469 

Pair  time (%) = 0 (0)
Neigh time (%) = 0 (0)
Comm  time (%) = 0 (0)
Outpt time (%) = 0 (0)
Other time (%) = 0 (0)

Nlocal:    500 ave 500 max 500 min
Histogram: 1 0 0 0 0 0 0 0 0 0
Nghost:    2180 ave 2180 max 2180 min
Histogram: 1 0 0 0 0 0 0 0 0 0
Neighs:    22893 ave 22893 max 22893 min
Histogram: 1 0 0 0 0 0 0 0 0 0

Total # of neighbors = 22893
Ave neighs/atom = 45.786
Neighbor list builds = 0
Dangerous builds = 0
WARNING: Resetting reneighboring criteria during minimization (min.cpp:166)
Setting up minimization ...
Memory usage per processor = 2.43658 Mbytes
mystep PotEng Xy Xz Yz Lx 
          20   -7.6562119      0.07469            0            0        7.469 
          20   -7.6562326      0.07469            0            0        7.469 

Minimization stats:
  Stopping criterion = energy tolerance
  Energy initial, next-to-last, final = 
        -7.65621190173     -7.65623256453     -7.65623262213
  Force two-norm initial, final = 1.42646 0.230442
  Force max component initial, final = 0.161793 0.0508613
  Final line search alpha, max atom move = 0.000909765 4.62718e-05
  Iterations, force evaluations = 43 405

Pair  time (%) = 0.336636 (95.0317)
Neigh time (%) = 0.00174308 (0.492068)
Comm  time (%) = 0.0102854 (2.90355)
Outpt time (%) = 0 (0)
Other time (%) = 0.00557089 (1.57265)

Nlocal:    500 ave 500 max 500 min
Histogram: 1 0 0 0 0 0 0 0 0 0
Nghost:    2172 ave 2172 max 2172 min
Histogram: 1 0 0 0 0 0 0 0 0 0
Neighs:    22901 ave 22901 max 22901 min
Histogram: 1 0 0 0 0 0 0 0 0 0

Total # of neighbors = 22901
Ave neighs/atom = 45.802
Neighbor list builds = 1
Dangerous builds = 0
WARNING: No fixes defined, atoms won't move (verlet.cpp:52)
Setting up run ...
Memory usage per processor = 1.7156 Mbytes
mystep PotEng Xy Xz Yz Lx 
          20   -7.6562326      0.07469            0            0        7.469 

Pair  time (%) = 0 (0)
Neigh time (%) = 0 (0)
Comm  time (%) = 0 (0)
Outpt time (%) = 0 (0)
Other time (%) = 0 (0)

Nlocal:    500 ave 500 max 500 min
Histogram: 1 0 0 0 0 0 0 0 0 0
Nghost:    2180 ave 2180 max 2180 min
Histogram: 1 0 0 0 0 0 0 0 0 0
Neighs:    22902 ave 22902 max 22902 min
Histogram: 1 0 0 0 0 0 0 0 0 0

Total # of neighbors = 22902
Ave neighs/atom = 45.804
Neighbor list builds = 0
Dangerous builds = 0
Setting up run ...
Memory usage per processor = 1.7156 Mbytes
mystep PotEng Xy Xz Yz Lx 
          21   -7.6562326      0.07469            0            0        7.469 
          21   -7.6562326     0.082159            0            0        7.469 

Pair  time (%) = 0.000828981 (94.638)
Neigh time (%) = 0 (0)
Comm  time (%) = 2.5034e-05 (2.85792)
Outpt time (%) = 5.96046e-06 (0.680457)
Other time (%) = 1.5974e-05 (1.82363)

Nlocal:    500 ave 500 max 500 min
Histogram: 1 0 0 0 0 0 0 0 0 0
Nghost:    2180 ave 2180 max 2180 min
Histogram: 1 0 0 0 0 0 0 0 0 0
Neighs:    22902 ave 22902 max 22902 min
Histogram: 1 0 0 0 0 0 0 0 0 0

Total # of neighbors = 22902
Ave neighs/atom = 45.804
Neighbor list builds = 0
Dangerous builds = 0
WARNING: No fixes defined, atoms won't move (verlet.cpp:52)
Setting up run ...
Memory usage per processor = 1.7156 Mbytes
mystep PotEng Xy Xz Yz Lx 
          21   -7.6562291     0.082159            0            0        7.469 

Pair  time (%) = 0 (0)
Neigh time (%) = 0 (0)
Comm  time (%) = 0 (0)
Outpt time (%) = 0 (0)
Other time (%) = 0 (0)

Nlocal:    500 ave 500 max 500 min
Histogram: 1 0 0 0 0 0 0 0 0 0
Nghost:    2180 ave 2180 max 2180 min
Histogram: 1 0 0 0 0 0 0 0 0 0
Neighs:    22898 ave 22898 max 22898 min
Histogram: 1 0 0 0 0 0 0 0 0 0

Total # of neighbors = 22898
Ave neighs/atom = 45.796
Neighbor list builds = 0
Dangerous builds = 0
WARNING: Resetting reneighboring criteria during minimization (min.cpp:166)
Setting up minimization ...
Memory usage per processor = 2.43658 Mbytes
mystep PotEng Xy Xz Yz Lx 
          22   -7.6562291     0.082159            0            0        7.469 
          22   -7.6562466     0.082159            0            0        7.469 

Minimization stats:
  Stopping criterion = energy tolerance
  Energy initial, next-to-last, final = 
        -7.65622908814     -7.65624650197     -7.65624657101
  Force two-norm initial, final = 1.40137 0.215305
  Force max component initial, final = 0.151197 0.0431717
  Final line search alpha, max atom move = 0.00184083 7.94715e-05
  Iterations, force evaluations = 27 255

Pair  time (%) = 0.212409 (95.55)
Neigh time (%) = 0 (0)
Comm  time (%) = 0.00640988 (2.88343)
Outpt time (%) = 0 (0)
Other time (%) = 0.00348258 (1.56661)

Nlocal:    500 ave 500 max 500 min
Histogram: 1 0 0 0 0 0 0 0 0 0
Nghost:    2180 ave 2180 max 2180 min
Histogram: 1 0 0 0 0 0 0 0 0 0
Neighs:    22898 ave 22898 max 22898 min
Histogram: 1 0 0 0 0 0 0 0 0 0

Total # of neighbors = 22898
Ave neighs/atom = 45.796
Neighbor list builds = 0
Dangerous builds = 0
WARNING: No fixes defined, atoms won't move (verlet.cpp:52)
Setting up run ...
Memory usage per processor = 1.7156 Mbytes
mystep PotEng Xy Xz Yz Lx 
          22   -7.6562466     0.082159            0            0        7.469 

Pair  time (%) = 0 (0)
Neigh time (%) = 0 (0)
Comm  time (%) = 0 (0)
Outpt time (%) = 0 (0)
Other time (%) = 0 (0)

Nlocal:    500 ave 500 max 500 min
Histogram: 1 0 0 0 0 0 0 0 0 0
Nghost:    2180 ave 2180 max 2180 min
Histogram: 1 0 0 0 0 0 0 0 0 0
Neighs:    22898 ave 22898 max 22898 min
Histogram: 1 0 0 0 0 0 0 0 0 0

Total # of neighbors = 22898
Ave neighs/atom = 45.796
Neighbor list builds = 0
Dangerous builds = 0
Setting up run ...
Memory usage per processor = 1.7156 Mbytes
mystep PotEng Xy Xz Yz Lx 
          23   -7.6562466     0.082159            0            0        7.469 
          23   -7.6562466     0.089628            0            0        7.469 

Pair  time (%) = 0.000828981 (94.8445)
Neigh time (%) = 0 (0)
Comm  time (%) = 2.47955e-05 (2.83688)
Outpt time (%) = 6.19888e-06 (0.70922)
Other time (%) = 1.40667e-05 (1.60938)

Nlocal:    500 ave 500 max 500 min
Histogram: 1 0 0 0 0 0 0 0 0 0
Nghost:    2180 ave 2180 max 2180 min
Histogram: 1 0 0 0 0 0 0 0 0 0
Neighs:    22898 ave 22898 max 22898 min
Histogram: 1 0 0 0 0 0 0 0 0 0

Total # of neighbors = 22898
Ave neighs/atom = 45.796
Neighbor list builds = 0
Dangerous builds = 0
WARNING: No fixes defined, atoms won't move (verlet.cpp:52)
Setting up run ...
Memory usage per processor = 1.7156 Mbytes
mystep PotEng Xy Xz Yz Lx 
          23   -7.6562331     0.089628            0            0        7.469 

Pair  time (%) = 0 (0)
Neigh time (%) = 0 (0)
Comm  time (%) = 0 (0)
Outpt time (%) = 0 (0)
Other time (%) = 0 (0)

Nlocal:    500 ave 500 max 500 min
Histogram: 1 0 0 0 0 0 0 0 0 0
Nghost:    2180 ave 2180 max 2180 min
Histogram: 1 0 0 0 0 0 0 0 0 0
Neighs:    22897 ave 22897 max 22897 min
Histogram: 1 0 0 0 0 0 0 0 0 0

Total # of neighbors = 22897
Ave neighs/atom = 45.794
Neighbor list builds = 0
Dangerous builds = 0
WARNING: Resetting reneighboring criteria during minimization (min.cpp:166)
Setting up minimization ...
Memory usage per processor = 2.43658 Mbytes
mystep PotEng Xy Xz Yz Lx 
          24   -7.6562331     0.089628            0            0        7.469 
          24     -7.65625     0.089628            0            0        7.469 

Minimization stats:
  Stopping criterion = energy tolerance
  Energy initial, next-to-last, final = 
        -7.65623311176     -7.65624994806     -7.65625000521
  Force two-norm initial, final = 1.45163 0.147688
  Force max component initial, final = 0.147704 0.0376098
  Final line search alpha, max atom move = 0.00195312 7.34566e-05
  Iterations, force evaluations = 28 269

Pair  time (%) = 0.223847 (95.5482)
Neigh time (%) = 0 (0)
Comm  time (%) = 0.00674915 (2.88084)
Outpt time (%) = 0 (0)
Other time (%) = 0.00368047 (1.57099)

Nlocal:    500 ave 500 max 500 min
Histogram: 1 0 0 0 0 0 0 0 0 0
Nghost:    2180 ave 2180 max 2180 min
Histogram: 1 0 0 0 0 0 0 0 0 0
Neighs:    22897 ave 22897 max 22897 min
Histogram: 1 0 0 0 0 0 0 0 0 0

Total # of neighbors = 22897
Ave neighs/atom = 45.794
Neighbor list builds = 0
Dangerous builds = 0
WARNING: No fixes defined, atoms won't move (verlet.cpp:52)
Setting up run ...
Memory usage per processor = 1.7156 Mbytes
mystep PotEng Xy Xz Yz Lx 
          24     -7.65625     0.089628            0            0        7.469 

Pair  time (%) = 0 (0)
Neigh time (%) = 0 (0)
Comm  time (%) = 0 (0)
Outpt time (%) = 0 (0)
Other time (%) = 0 (0)

Nlocal:    500 ave 500 max 500 min
Histogram: 1 0 0 0 0 0 0 0 0 0
Nghost:    2180 ave 2180 max 2180 min
Histogram: 1 0 0 0 0 0 0 0 0 0
Neighs:    22896 ave 22896 max 22896 min
Histogram: 1 0 0 0 0 0 0 0 0 0

Total # of neighbors = 22896
Ave neighs/atom = 45.792
Neighbor list builds = 0
Dangerous builds = 0
Setting up run ...
Memory usage per processor = 1.7156 Mbytes
mystep PotEng Xy Xz Yz Lx 
          25     -7.65625     0.089628            0            0        7.469 
          25     -7.65625     0.097097            0            0        7.469 

Pair  time (%) = 0.000828981 (94.9481)
Neigh time (%) = 0 (0)
Comm  time (%) = 2.5034e-05 (2.86729)
Outpt time (%) = 6.19888e-06 (0.709995)
Other time (%) = 1.28746e-05 (1.4746)

Nlocal:    500 ave 500 max 500 min
Histogram: 1 0 0 0 0 0 0 0 0 0
Nghost:    2180 ave 2180 max 2180 min
Histogram: 1 0 0 0 0 0 0 0 0 0
Neighs:    22896 ave 22896 max 22896 min
Histogram: 1 0 0 0 0 0 0 0 0 0

Total # of neighbors = 22896
Ave neighs/atom = 45.792
Neighbor list builds = 0
Dangerous builds = 0
WARNING: No fixes defined, atoms won't move (verlet.cpp:52)
Setting up run ...
Memory usage per processor = 1.7156 Mbytes
mystep PotEng Xy Xz Yz Lx 
          25   -7.6562265     0.097097            0            0        7.469 

Pair  time (%) = 0 (0)
Neigh time (%) = 0 (0)
Comm  time (%) = 0 (0)
Outpt time (%) = 0 (0)
Other time (%) = 0 (0)

Nlocal:    500 ave 500 max 500 min
Histogram: 1 0 0 0 0 0 0 0 0 0
Nghost:    2180 ave 2180 max 2180 min
Histogram: 1 0 0 0 0 0 0 0 0 0
Neighs:    22890 ave 22890 max 22890 min
Histogram: 1 0 0 0 0 0 0 0 0 0

Total # of neighbors = 22890
Ave neighs/atom = 45.78
Neighbor list builds = 0
Dangerous builds = 0
WARNING: Resetting reneighboring criteria during minimization (min.cpp:166)
Setting up minimization ...
Memory usage per processor = 2.43658 Mbytes
mystep PotEng Xy Xz Yz Lx 
          26   -7.6562265     0.097097            0            0        7.469 
          26   -7.6562446     0.097097            0            0        7.469 

Minimization stats:
  Stopping criterion = energy tolerance
  Energy initial, next-to-last, final = 
        -7.65622651745     -7.65624458234     -7.65624463611
  Force two-norm initial, final = 1.45995 0.145525
  Force max component initial, final = 0.148379 0.051755
  Final line search alpha, max atom move = 0.00195312 0.000101084
  Iterations, force evaluations = 30 287

Pair  time (%) = 0.23887 (95.5696)
Neigh time (%) = 0 (0)
Comm  time (%) = 0.00715637 (2.8632)
Outpt time (%) = 0 (0)
Other time (%) = 0.00391698 (1.56715)

Nlocal:    500 ave 500 max 500 min
Histogram: 1 0 0 0 0 0 0 0 0 0
Nghost:    2180 ave 2180 max 2180 min
Histogram: 1 0 0 0 0 0 0 0 0 0
Neighs:    22890 ave 22890 max 22890 min
Histogram: 1 0 0 0 0 0 0 0 0 0

Total # of neighbors = 22890
Ave neighs/atom = 45.78
Neighbor list builds = 0
Dangerous builds = 0
WARNING: No fixes defined, atoms won't move (verlet.cpp:52)
Setting up run ...
Memory usage per processor = 1.7156 Mbytes
mystep PotEng Xy Xz Yz Lx 
          26   -7.6562446     0.097097            0            0        7.469 

Pair  time (%) = 0 (0)
Neigh time (%) = 0 (0)
Comm  time (%) = 0 (0)
Outpt time (%) = 0 (0)
Other time (%) = 0 (0)

Nlocal:    500 ave 500 max 500 min
Histogram: 1 0 0 0 0 0 0 0 0 0
Nghost:    2180 ave 2180 max 2180 min
Histogram: 1 0 0 0 0 0 0 0 0 0
Neighs:    22886 ave 22886 max 22886 min
Histogram: 1 0 0 0 0 0 0 0 0 0

Total # of neighbors = 22886
Ave neighs/atom = 45.772
Neighbor list builds = 0
Dangerous builds = 0
Setting up run ...
Memory usage per processor = 1.7156 Mbytes
mystep PotEng Xy Xz Yz Lx 
          27   -7.6562446     0.097097            0            0        7.469 
          27   -7.6562446     0.104566            0            0        7.469 

Pair  time (%) = 0.000834942 (94.7767)
Neigh time (%) = 0 (0)
Comm  time (%) = 2.5034e-05 (2.84168)
Outpt time (%) = 5.96046e-06 (0.67659)
Other time (%) = 1.50204e-05 (1.70501)

Nlocal:    500 ave 500 max 500 min
Histogram: 1 0 0 0 0 0 0 0 0 0
Nghost:    2180 ave 2180 max 2180 min
Histogram: 1 0 0 0 0 0 0 0 0 0
Neighs:    22886 ave 22886 max 22886 min
Histogram: 1 0 0 0 0 0 0 0 0 0

Total # of neighbors = 22886
Ave neighs/atom = 45.772
Neighbor list builds = 0
Dangerous builds = 0
WARNING: No fixes defined, atoms won't move (verlet.cpp:52)
Setting up run ...
Memory usage per processor = 1.7156 Mbytes
mystep PotEng Xy Xz Yz Lx 
          27   -7.6562119     0.104566            0            0        7.469 

Pair  time (%) = 0 (0)
Neigh time (%) = 0 (0)
Comm  time (%) = 0 (0)
Outpt time (%) = 0 (0)
Other time (%) = 9.53674e-07 (100)

Nlocal:    500 ave 500 max 500 min
Histogram: 1 0 0 0 0 0 0 0 0 0
Nghost:    2180 ave 2180 max 2180 min
Histogram: 1 0 0 0 0 0 0 0 0 0
Neighs:    22890 ave 22890 max 22890 min
Histogram: 1 0 0 0 0 0 0 0 0 0

Total # of neighbors = 22890
Ave neighs/atom = 45.78
Neighbor list builds = 0
Dangerous builds = 0
WARNING: Resetting reneighboring criteria during minimization (min.cpp:166)
Setting up minimization ...
Memory usage per processor = 2.43658 Mbytes
mystep PotEng Xy Xz Yz Lx 
          28   -7.6562119     0.104566            0            0        7.469 
          28   -7.6562303     0.104566            0            0        7.469 

Minimization stats:
  Stopping criterion = energy tolerance
  Energy initial, next-to-last, final = 
        -7.65621190841      -7.6562302876     -7.65623033511
  Force two-norm initial, final = 1.4191 0.135744
  Force max component initial, final = 0.157278 0.0458218
  Final line search alpha, max atom move = 0.00195312 8.94956e-05
  Iterations, force evaluations = 25 235

Pair  time (%) = 0.195896 (95.5639)
Neigh time (%) = 0 (0)
Comm  time (%) = 0.00585818 (2.8578)
Outpt time (%) = 0 (0)
Other time (%) = 0.00323534 (1.5783)

Nlocal:    500 ave 500 max 500 min
Histogram: 1 0 0 0 0 0 0 0 0 0
Nghost:    2180 ave 2180 max 2180 min
Histogram: 1 0 0 0 0 0 0 0 0 0
Neighs:    22890 ave 22890 max 22890 min
Histogram: 1 0 0 0 0 0 0 0 0 0

Total # of neighbors = 22890
Ave neighs/atom = 45.78
Neighbor list builds = 0
Dangerous builds = 0
WARNING: No fixes defined, atoms won't move (verlet.cpp:52)
Setting up run ...
Memory usage per processor = 1.7156 Mbytes
mystep PotEng Xy Xz Yz Lx 
          28   -7.6562303     0.104566            0            0        7.469 

Pair  time (%) = 0 (0)
Neigh time (%) = 0 (0)
Comm  time (%) = 0 (0)
Outpt time (%) = 0 (0)
Other time (%) = 9.53674e-07 (100)

Nlocal:    500 ave 500 max 500 min
Histogram: 1 0 0 0 0 0 0 0 0 0
Nghost:    2183 ave 2183 max 2183 min
Histogram: 1 0 0 0 0 0 0 0 0 0
Neighs:    22886 ave 22886 max 22886 min
Histogram: 1 0 0 0 0 0 0 0 0 0

Total # of neighbors = 22886
Ave neighs/atom = 45.772
Neighbor list builds = 0
Dangerous builds = 0
Setting up run ...
Memory usage per processor = 1.7156 Mbytes
mystep PotEng Xy Xz Yz Lx 
          29   -7.6562303     0.104566            0            0        7.469 
          29   -7.6562303     0.112035            0            0        7.469 

Pair  time (%) = 0.000828981 (94.8445)
Neigh time (%) = 0 (0)
Comm  time (%) = 2.59876e-05 (2.97327)
Outpt time (%) = 5.96046e-06 (0.681942)
Other time (%) = 1.3113e-05 (1.50027)

Nlocal:    500 ave 500 max 500 min
Histogram: 1 0 0 0 0 0 0 0 0 0
Nghost:    2183 ave 2183 max 2183 min
Histogram: 1 0 0 0 0 0 0 0 0 0
Neighs:    22886 ave 22886 max 22886 min
Histogram: 1 0 0 0 0 0 0 0 0 0

Total # of neighbors = 22886
Ave neighs/atom = 45.772
Neighbor list builds = 0
Dangerous builds = 0
WARNING: No fixes defined, atoms won't move (verlet.cpp:52)
Setting up run ...
Memory usage per processor = 1.7156 Mbytes
mystep PotEng Xy Xz Yz Lx 
          29   -7.6561882     0.112035            0            0        7.469 

Pair  time (%) = 0 (0)
Neigh time (%) = 0 (0)
Comm  time (%) = 0 (0)
Outpt time (%) = 0 (0)
Other time (%) = 0 (0)

Nlocal:    500 ave 500 max 500 min
Histogram: 1 0 0 0 0 0 0 0 0 0
Nghost:    2183 ave 2183 max 2183 min
Histogram: 1 0 0 0 0 0 0 0 0 0
Neighs:    22890 ave 22890 max 22890 min
Histogram: 1 0 0 0 0 0 0 0 0 0

Total # of neighbors = 22890
Ave neighs/atom = 45.78
Neighbor list builds = 0
Dangerous builds = 0
WARNING: Resetting reneighboring criteria during minimization (min.cpp:166)
Setting up minimization ...
Memory usage per processor = 2.43658 Mbytes
mystep PotEng Xy Xz Yz Lx 
          30   -7.6561882     0.112035            0            0        7.469 
          30   -7.6562055     0.112035            0            0        7.469 

Minimization stats:
  Stopping criterion = energy tolerance
  Energy initial, next-to-last, final = 
         -7.6561881735     -7.65620537988     -7.65620545264
  Force two-norm initial, final = 1.41289 0.147839
  Force max component initial, final = 0.142981 0.0290804
  Final line search alpha, max atom move = 0.00390625 0.000113595
  Iterations, force evaluations = 33 315

Pair  time (%) = 0.262248 (95.5617)
Neigh time (%) = 0 (0)
Comm  time (%) = 0.00784945 (2.8603)
Outpt time (%) = 0 (0)
Other time (%) = 0.0043304 (1.57797)

Nlocal:    500 ave 500 max 500 min
Histogram: 1 0 0 0 0 0 0 0 0 0
Nghost:    2183 ave 2183 max 2183 min
Histogram: 1 0 0 0 0 0 0 0 0 0
Neighs:    22890 ave 22890 max 22890 min
Histogram: 1 0 0 0 0 0 0 0 0 0

Total # of neighbors = 22890
Ave neighs/atom = 45.78
Neighbor list builds = 0
Dangerous builds = 0
WARNING: No fixes defined, atoms won't move (verlet.cpp:52)
Setting up run ...
Memory usage per processor = 1.7156 Mbytes
mystep PotEng Xy Xz Yz Lx 
          30   -7.6562055     0.112035            0            0        7.469 

Pair  time (%) = 0 (0)
Neigh time (%) = 0 (0)
Comm  time (%) = 0 (0)
Outpt time (%) = 0 (0)
Other time (%) = 0 (0)

Nlocal:    500 ave 500 max 500 min
Histogram: 1 0 0 0 0 0 0 0 0 0
Nghost:    2183 ave 2183 max 2183 min
Histogram: 1 0 0 0 0 0 0 0 0 0
Neighs:    22891 ave 22891 max 22891 min
Histogram: 1 0 0 0 0 0 0 0 0 0

Total # of neighbors = 22891
Ave neighs/atom = 45.782
Neighbor list builds = 0
Dangerous builds = 0
Setting up run ...
Memory usage per processor = 1.7156 Mbytes
mystep PotEng Xy Xz Yz Lx 
          31   -7.6562055     0.112035            0            0        7.469 
          31   -7.6562055     0.119504            0            0        7.469 

Pair  time (%) = 0.00082922 (94.7684)
Neigh time (%) = 0 (0)
Comm  time (%) = 2.57492e-05 (2.94278)
Outpt time (%) = 5.96046e-06 (0.681199)
Other time (%) = 1.40667e-05 (1.60763)

Nlocal:    500 ave 500 max 500 min
Histogram: 1 0 0 0 0 0 0 0 0 0
Nghost:    2183 ave 2183 max 2183 min
Histogram: 1 0 0 0 0 0 0 0 0 0
Neighs:    22891 ave 22891 max 22891 min
Histogram: 1 0 0 0 0 0 0 0 0 0

Total # of neighbors = 22891
Ave neighs/atom = 45.782
Neighbor list builds = 0
Dangerous builds = 0
WARNING: No fixes defined, atoms won't move (verlet.cpp:52)
Setting up run ...
Memory usage per processor = 1.7156 Mbytes
mystep PotEng Xy Xz Yz Lx 
          31   -7.6561544     0.119504            0            0        7.469 

Pair  time (%) = 0 (0)
Neigh time (%) = 0 (0)
Comm  time (%) = 0 (0)
Outpt time (%) = 0 (0)
Other time (%) = 1.19209e-06 (100)

Nlocal:    500 ave 500 max 500 min
Histogram: 1 0 0 0 0 0 0 0 0 0
Nghost:    2183 ave 2183 max 2183 min
Histogram: 1 0 0 0 0 0 0 0 0 0
Neighs:    22890 ave 22890 max 22890 min
Histogram: 1 0 0 0 0 0 0 0 0 0

Total # of neighbors = 22890
Ave neighs/atom = 45.78
Neighbor list builds = 0
Dangerous builds = 0
WARNING: Resetting reneighboring criteria during minimization (min.cpp:166)
Setting up minimization ...
Memory usage per processor = 2.43658 Mbytes
mystep PotEng Xy Xz Yz Lx 
          32   -7.6561544     0.119504            0            0        7.469 
          32   -7.6561707     0.119504            0            0        7.469 

Minimization stats:
  Stopping criterion = energy tolerance
  Energy initial, next-to-last, final = 
        -7.65615437602     -7.65617064895     -7.65617072471
  Force two-norm initial, final = 1.39434 0.264756
  Force max component initial, final = 0.140556 0.0435977
  Final line search alpha, max atom move = 0.00195312 8.51517e-05
  Iterations, force evaluations = 27 256

Pair  time (%) = 0.213206 (95.5485)
Neigh time (%) = 0 (0)
Comm  time (%) = 0.00640678 (2.87121)
Outpt time (%) = 0 (0)
Other time (%) = 0.00352621 (1.58028)

Nlocal:    500 ave 500 max 500 min
Histogram: 1 0 0 0 0 0 0 0 0 0
Nghost:    2183 ave 2183 max 2183 min
Histogram: 1 0 0 0 0 0 0 0 0 0
Neighs:    22890 ave 22890 max 22890 min
Histogram: 1 0 0 0 0 0 0 0 0 0

Total # of neighbors = 22890
Ave neighs/atom = 45.78
Neighbor list builds = 0
Dangerous builds = 0
WARNING: No fixes defined, atoms won't move (verlet.cpp:52)
Setting up run ...
Memory usage per processor = 1.7156 Mbytes
mystep PotEng Xy Xz Yz Lx 
          32   -7.6561707     0.119504            0            0        7.469 

Pair  time (%) = 0 (0)
Neigh time (%) = 0 (0)
Comm  time (%) = 0 (0)
Outpt time (%) = 0 (0)
Other time (%) = 0 (0)

Nlocal:    500 ave 500 max 500 min
Histogram: 1 0 0 0 0 0 0 0 0 0
Nghost:    2183 ave 2183 max 2183 min
Histogram: 1 0 0 0 0 0 0 0 0 0
Neighs:    22892 ave 22892 max 22892 min
Histogram: 1 0 0 0 0 0 0 0 0 0

Total # of neighbors = 22892
Ave neighs/atom = 45.784
Neighbor list builds = 0
Dangerous builds = 0
Setting up run ...
Memory usage per processor = 1.7156 Mbytes
mystep PotEng Xy Xz Yz Lx 
          33   -7.6561707     0.119504            0            0        7.469 
          33   -7.6561707     0.126973            0            0        7.469 

Pair  time (%) = 0.000828981 (94.8445)
Neigh time (%) = 0 (0)
Comm  time (%) = 2.5034e-05 (2.86416)
Outpt time (%) = 5.96046e-06 (0.681942)
Other time (%) = 1.40667e-05 (1.60938)

Nlocal:    500 ave 500 max 500 min
Histogram: 1 0 0 0 0 0 0 0 0 0
Nghost:    2183 ave 2183 max 2183 min
Histogram: 1 0 0 0 0 0 0 0 0 0
Neighs:    22892 ave 22892 max 22892 min
Histogram: 1 0 0 0 0 0 0 0 0 0

Total # of neighbors = 22892
Ave neighs/atom = 45.784
Neighbor list builds = 0
Dangerous builds = 0
WARNING: No fixes defined, atoms won't move (verlet.cpp:52)
Setting up run ...
Memory usage per processor = 1.7156 Mbytes
mystep PotEng Xy Xz Yz Lx 
          33   -7.6561102     0.126973            0            0        7.469 

Pair  time (%) = 0 (0)
Neigh time (%) = 0 (0)
Comm  time (%) = 0 (0)
Outpt time (%) = 0 (0)
Other time (%) = 0 (0)

Nlocal:    500 ave 500 max 500 min
Histogram: 1 0 0 0 0 0 0 0 0 0
Nghost:    2183 ave 2183 max 2183 min
Histogram: 1 0 0 0 0 0 0 0 0 0
Neighs:    22889 ave 22889 max 22889 min
Histogram: 1 0 0 0 0 0 0 0 0 0

Total # of neighbors = 22889
Ave neighs/atom = 45.778
Neighbor list builds = 0
Dangerous builds = 0
WARNING: Resetting reneighboring criteria during minimization (min.cpp:166)
Setting up minimization ...
Memory usage per processor = 2.43658 Mbytes
mystep PotEng Xy Xz Yz Lx 
          34   -7.6561102     0.126973            0            0        7.469 
          34   -7.6561267     0.126973            0            0        7.469 

Minimization stats:
  Stopping criterion = energy tolerance
  Energy initial, next-to-last, final = 
        -7.65611022179      -7.6561266461     -7.65612670435
  Force two-norm initial, final = 1.39655 0.228955
  Force max component initial, final = 0.137268 0.050352
  Final line search alpha, max atom move = 0.0012501 6.2945e-05
  Iterations, force evaluations = 28 263

Pair  time (%) = 0.219074 (95.5599)
Neigh time (%) = 0 (0)
Comm  time (%) = 0.00657487 (2.86795)
Outpt time (%) = 0 (0)
Other time (%) = 0.00360417 (1.57214)

Nlocal:    500 ave 500 max 500 min
Histogram: 1 0 0 0 0 0 0 0 0 0
Nghost:    2183 ave 2183 max 2183 min
Histogram: 1 0 0 0 0 0 0 0 0 0
Neighs:    22889 ave 22889 max 22889 min
Histogram: 1 0 0 0 0 0 0 0 0 0

Total # of neighbors = 22889
Ave neighs/atom = 45.778
Neighbor list builds = 0
Dangerous builds = 0
WARNING: No fixes defined, atoms won't move (verlet.cpp:52)
Setting up run ...
Memory usage per processor = 1.7156 Mbytes
mystep PotEng Xy Xz Yz Lx 
          34   -7.6561267     0.126973            0            0        7.469 

Pair  time (%) = 0 (0)
Neigh time (%) = 0 (0)
Comm  time (%) = 0 (0)
Outpt time (%) = 0 (0)
Other time (%) = 0 (0)

Nlocal:    500 ave 500 max 500 min
Histogram: 1 0 0 0 0 0 0 0 0 0
Nghost:    2183 ave 2183 max 2183 min
Histogram: 1 0 0 0 0 0 0 0 0 0
Neighs:    22898 ave 22898 max 22898 min
Histogram: 1 0 0 0 0 0 0 0 0 0

Total # of neighbors = 22898
Ave neighs/atom = 45.796
Neighbor list builds = 0
Dangerous builds = 0
Setting up run ...
Memory usage per processor = 1.7156 Mbytes
mystep PotEng Xy Xz Yz Lx 
          35   -7.6561267     0.126973            0            0        7.469 
          35   -7.6561267     0.134442            0            0        7.469 

Pair  time (%) = 0.000835896 (94.885)
Neigh time (%) = 0 (0)
Comm  time (%) = 2.5034e-05 (2.84168)
Outpt time (%) = 6.91414e-06 (0.784844)
Other time (%) = 1.3113e-05 (1.4885)

Nlocal:    500 ave 500 max 500 min
Histogram: 1 0 0 0 0 0 0 0 0 0
Nghost:    2183 ave 2183 max 2183 min
Histogram: 1 0 0 0 0 0 0 0 0 0
Neighs:    22898 ave 22898 max 22898 min
Histogram: 1 0 0 0 0 0 0 0 0 0

Total # of neighbors = 22898
Ave neighs/atom = 45.796
Neighbor list builds = 0
Dangerous builds = 0
WARNING: No fixes defined, atoms won't move (verlet.cpp:52)
Setting up run ...
Memory usage per processor = 1.7156 Mbytes
mystep PotEng Xy Xz Yz Lx 
          35   -7.6560553     0.134442            0            0        7.469 

Pair  time (%) = 0 (0)
Neigh time (%) = 0 (0)
Comm  time (%) = 0 (0)
Outpt time (%) = 0 (0)
Other time (%) = 0 (0)

Nlocal:    500 ave 500 max 500 min
Histogram: 1 0 0 0 0 0 0 0 0 0
Nghost:    2183 ave 2183 max 2183 min
Histogram: 1 0 0 0 0 0 0 0 0 0
Neighs:    22895 ave 22895 max 22895 min
Histogram: 1 0 0 0 0 0 0 0 0 0

Total # of neighbors = 22895
Ave neighs/atom = 45.79
Neighbor list builds = 0
Dangerous builds = 0
WARNING: Resetting reneighboring criteria during minimization (min.cpp:166)
Setting up minimization ...
Memory usage per processor = 2.43658 Mbytes
mystep PotEng Xy Xz Yz Lx 
          36   -7.6560553     0.134442            0            0        7.469 
          36   -7.6560723     0.134442            0            0        7.469 

Minimization stats:
  Stopping criterion = energy tolerance
  Energy initial, next-to-last, final = 
        -7.65605525184     -7.65607224653     -7.65607230922
  Force two-norm initial, final = 1.43961 0.113238
  Force max component initial, final = 0.155038 0.0211235
  Final line search alpha, max atom move = 0.00195312 4.12568e-05
  Iterations, force evaluations = 26 248

Pair  time (%) = 0.206812 (95.566)
Neigh time (%) = 0 (0)
Comm  time (%) = 0.00620031 (2.86512)
Outpt time (%) = 0 (0)
Other time (%) = 0.00339508 (1.56884)

Nlocal:    500 ave 500 max 500 min
Histogram: 1 0 0 0 0 0 0 0 0 0
Nghost:    2183 ave 2183 max 2183 min
Histogram: 1 0 0 0 0 0 0 0 0 0
Neighs:    22895 ave 22895 max 22895 min
Histogram: 1 0 0 0 0 0 0 0 0 0

Total # of neighbors = 22895
Ave neighs/atom = 45.79
Neighbor list builds = 0
Dangerous builds = 0
WARNING: No fixes defined, atoms won't move (verlet.cpp:52)
Setting up run ...
Memory usage per processor = 1.7156 Mbytes
mystep PotEng Xy Xz Yz Lx 
          36   -7.6560723     0.134442            0            0        7.469 

Pair  time (%) = 0 (0)
Neigh time (%) = 0 (0)
Comm  time (%) = 0 (0)
Outpt time (%) = 0 (0)
Other time (%) = 0 (0)

Nlocal:    500 ave 500 max 500 min
Histogram: 1 0 0 0 0 0 0 0 0 0
Nghost:    2183 ave 2183 max 2183 min
Histogram: 1 0 0 0 0 0 0 0 0 0
Neighs:    22895 ave 22895 max 22895 min
Histogram: 1 0 0 0 0 0 0 0 0 0

Total # of neighbors = 22895
Ave neighs/atom = 45.79
Neighbor list builds = 0
Dangerous builds = 0
Setting up run ...
Memory usage per processor = 1.7156 Mbytes
mystep PotEng Xy Xz Yz Lx 
          37   -7.6560723     0.134442            0            0        7.469 
          37   -7.6560723     0.141911            0            0        7.469 

Pair  time (%) = 0.000831127 (95.09)
Neigh time (%) = 0 (0)
Comm  time (%) = 2.47955e-05 (2.83688)
Outpt time (%) = 5.96046e-06 (0.681942)
Other time (%) = 1.21593e-05 (1.39116)

Nlocal:    500 ave 500 max 500 min
Histogram: 1 0 0 0 0 0 0 0 0 0
Nghost:    2183 ave 2183 max 2183 min
Histogram: 1 0 0 0 0 0 0 0 0 0
Neighs:    22895 ave 22895 max 22895 min
Histogram: 1 0 0 0 0 0 0 0 0 0

Total # of neighbors = 22895
Ave neighs/atom = 45.79
Neighbor list builds = 0
Dangerous builds = 0
WARNING: No fixes defined, atoms won't move (verlet.cpp:52)
Setting up run ...
Memory usage per processor = 1.7156 Mbytes
mystep PotEng Xy Xz Yz Lx 
          37   -7.6559919     0.141911            0            0        7.469 

Pair  time (%) = 0 (0)
Neigh time (%) = 0 (0)
Comm  time (%) = 0 (0)
Outpt time (%) = 0 (0)
Other time (%) = 0 (0)

Nlocal:    500 ave 500 max 500 min
Histogram: 1 0 0 0 0 0 0 0 0 0
Nghost:    2183 ave 2183 max 2183 min
Histogram: 1 0 0 0 0 0 0 0 0 0
Neighs:    22887 ave 22887 max 22887 min
Histogram: 1 0 0 0 0 0 0 0 0 0

Total # of neighbors = 22887
Ave neighs/atom = 45.774
Neighbor list builds = 0
Dangerous builds = 0
WARNING: Resetting reneighboring criteria during minimization (min.cpp:166)
Setting up minimization ...
Memory usage per processor = 2.43658 Mbytes
mystep PotEng Xy Xz Yz Lx 
          38   -7.6559919     0.141911            0            0        7.469 
          38   -7.6560078     0.141911            0            0        7.469 

Minimization stats:
  Stopping criterion = energy tolerance
  Energy initial, next-to-last, final = 
        -7.65599190755     -7.65600771064     -7.65600777101
  Force two-norm initial, final = 1.3975 0.114009
  Force max component initial, final = 0.144155 0.0172178
  Final line search alpha, max atom move = 0.000976562 1.68142e-05
  Iterations, force evaluations = 21 199

Pair  time (%) = 0.166352 (95.5631)
Neigh time (%) = 0 (0)
Comm  time (%) = 0.00501561 (2.88128)
Outpt time (%) = 0 (0)
Other time (%) = 0.00270796 (1.55562)

Nlocal:    500 ave 500 max 500 min
Histogram: 1 0 0 0 0 0 0 0 0 0
Nghost:    2183 ave 2183 max 2183 min
Histogram: 1 0 0 0 0 0 0 0 0 0
Neighs:    22887 ave 22887 max 22887 min
Histogram: 1 0 0 0 0 0 0 0 0 0

Total # of neighbors = 22887
Ave neighs/atom = 45.774
Neighbor list builds = 0
Dangerous builds = 0
WARNING: No fixes defined, atoms won't move (verlet.cpp:52)
Setting up run ...
Memory usage per processor = 1.7156 Mbytes
mystep PotEng Xy Xz Yz Lx 
          38   -7.6560078     0.141911            0            0        7.469 

Pair  time (%) = 0 (0)
Neigh time (%) = 0 (0)
Comm  time (%) = 0 (0)
Outpt time (%) = 0 (0)
Other time (%) = 1.19209e-06 (100)

Nlocal:    500 ave 500 max 500 min
Histogram: 1 0 0 0 0 0 0 0 0 0
Nghost:    2183 ave 2183 max 2183 min
Histogram: 1 0 0 0 0 0 0 0 0 0
Neighs:    22893 ave 22893 max 22893 min
Histogram: 1 0 0 0 0 0 0 0 0 0

Total # of neighbors = 22893
Ave neighs/atom = 45.786
Neighbor list builds = 0
Dangerous builds = 0
Setting up run ...
Memory usage per processor = 1.7156 Mbytes
mystep PotEng Xy Xz Yz Lx 
          39   -7.6560078     0.141911            0            0        7.469 
          39   -7.6560078      0.14938            0            0        7.469 

Pair  time (%) = 0.000843048 (94.6214)
Neigh time (%) = 0 (0)
Comm  time (%) = 2.59876e-05 (2.91678)
Outpt time (%) = 6.91414e-06 (0.776024)
Other time (%) = 1.50204e-05 (1.68584)

Nlocal:    500 ave 500 max 500 min
Histogram: 1 0 0 0 0 0 0 0 0 0
Nghost:    2183 ave 2183 max 2183 min
Histogram: 1 0 0 0 0 0 0 0 0 0
Neighs:    22893 ave 22893 max 22893 min
Histogram: 1 0 0 0 0 0 0 0 0 0

Total # of neighbors = 22893
Ave neighs/atom = 45.786
Neighbor list builds = 0
Dangerous builds = 0
WARNING: No fixes defined, atoms won't move (verlet.cpp:52)
Setting up run ...
Memory usage per processor = 1.7156 Mbytes
mystep PotEng Xy Xz Yz Lx 
          39   -7.6559179      0.14938            0            0        7.469 

Pair  time (%) = 0 (0)
Neigh time (%) = 0 (0)
Comm  time (%) = 0 (0)
Outpt time (%) = 0 (0)
Other time (%) = 0 (0)

Nlocal:    500 ave 500 max 500 min
Histogram: 1 0 0 0 0 0 0 0 0 0
Nghost:    2183 ave 2183 max 2183 min
Histogram: 1 0 0 0 0 0 0 0 0 0
Neighs:    22884 ave 22884 max 22884 min
Histogram: 1 0 0 0 0 0 0 0 0 0

Total # of neighbors = 22884
Ave neighs/atom = 45.768
Neighbor list builds = 0
Dangerous builds = 0
WARNING: Resetting reneighboring criteria during minimization (min.cpp:166)
Setting up minimization ...
Memory usage per processor = 2.43658 Mbytes
mystep PotEng Xy Xz Yz Lx 
          40   -7.6559179      0.14938            0            0        7.469 
          40   -7.6559346      0.14938            0            0        7.469 

Minimization stats:
  Stopping criterion = energy tolerance
  Energy initial, next-to-last, final = 
        -7.65591785137     -7.65593451038     -7.65593456939
  Force two-norm initial, final = 1.39183 0.191065
  Force max component initial, final = 0.142409 0.0306213
  Final line search alpha, max atom move = 0.00195312 5.98073e-05
  Iterations, force evaluations = 30 284

Pair  time (%) = 0.236977 (94.1025)
Neigh time (%) = 0.00355411 (1.41132)
Comm  time (%) = 0.00737286 (2.92772)
Outpt time (%) = 0 (0)
Other time (%) = 0.00392461 (1.55844)

Nlocal:    500 ave 500 max 500 min
Histogram: 1 0 0 0 0 0 0 0 0 0
Nghost:    2187 ave 2187 max 2187 min
Histogram: 1 0 0 0 0 0 0 0 0 0
Neighs:    22882 ave 22882 max 22882 min
Histogram: 1 0 0 0 0 0 0 0 0 0

Total # of neighbors = 22882
Ave neighs/atom = 45.764
Neighbor list builds = 2
Dangerous builds = 0
WARNING: No fixes defined, atoms won't move (verlet.cpp:52)
Setting up run ...
Memory usage per processor = 1.7156 Mbytes
mystep PotEng Xy Xz Yz Lx 
          40   -7.6559346      0.14938            0            0        7.469 

Pair  time (%) = 0 (0)
Neigh time (%) = 0 (0)
Comm  time (%) = 0 (0)
Outpt time (%) = 0 (0)
Other time (%) = 0 (0)

Nlocal:    500 ave 500 max 500 min
Histogram: 1 0 0 0 0 0 0 0 0 0
Nghost:    2187 ave 2187 max 2187 min
Histogram: 1 0 0 0 0 0 0 0 0 0
Neighs:    22886 ave 22886 max 22886 min
Histogram: 1 0 0 0 0 0 0 0 0 0

Total # of neighbors = 22886
Ave neighs/atom = 45.772
Neighbor list builds = 0
Dangerous builds = 0
Setting up run ...
Memory usage per processor = 1.7156 Mbytes
mystep PotEng Xy Xz Yz Lx 
          41   -7.6559346      0.14938            0            0        7.469 
          41   -7.6559346     0.156849            0            0        7.469 

Pair  time (%) = 0.000830889 (94.0113)
Neigh time (%) = 0 (0)
Comm  time (%) = 2.5034e-05 (2.83248)
Outpt time (%) = 1.28746e-05 (1.4567)
Other time (%) = 1.50204e-05 (1.69949)

Nlocal:    500 ave 500 max 500 min
Histogram: 1 0 0 0 0 0 0 0 0 0
Nghost:    2187 ave 2187 max 2187 min
Histogram: 1 0 0 0 0 0 0 0 0 0
Neighs:    22886 ave 22886 max 22886 min
Histogram: 1 0 0 0 0 0 0 0 0 0

Total # of neighbors = 22886
Ave neighs/atom = 45.772
Neighbor list builds = 0
Dangerous builds = 0
WARNING: No fixes defined, atoms won't move (verlet.cpp:52)
Setting up run ...
Memory usage per processor = 1.7156 Mbytes
mystep PotEng Xy Xz Yz Lx 
          41   -7.6558339     0.156849            0            0        7.469 

Pair  time (%) = 0 (0)
Neigh time (%) = 0 (0)
Comm  time (%) = 0 (0)
Outpt time (%) = 0 (0)
Other time (%) = 1.19209e-06 (100)

Nlocal:    500 ave 500 max 500 min
Histogram: 1 0 0 0 0 0 0 0 0 0
Nghost:    2187 ave 2187 max 2187 min
Histogram: 1 0 0 0 0 0 0 0 0 0
Neighs:    22884 ave 22884 max 22884 min
Histogram: 1 0 0 0 0 0 0 0 0 0

Total # of neighbors = 22884
Ave neighs/atom = 45.768
Neighbor list builds = 0
Dangerous builds = 0
WARNING: Resetting reneighboring criteria during minimization (min.cpp:166)
Setting up minimization ...
Memory usage per processor = 2.43658 Mbytes
mystep PotEng Xy Xz Yz Lx 
          42   -7.6558339     0.156849            0            0        7.469 
          42   -7.6558572     0.156849            0            0        7.469 

Minimization stats:
  Stopping criterion = energy tolerance
  Energy initial, next-to-last, final = 
        -7.65583394762     -7.65585709531     -7.65585716955
  Force two-norm initial, final = 1.41772 0.187134
  Force max component initial, final = 0.150581 0.0336238
  Final line search alpha, max atom move = 0.00195312 6.56715e-05
  Iterations, force evaluations = 55 517

Pair  time (%) = 0.431031 (95.1251)
Neigh time (%) = 0.00177598 (0.391945)
Comm  time (%) = 0.0132098 (2.9153)
Outpt time (%) = 0 (0)
Other time (%) = 0.0071032 (1.56762)

Nlocal:    500 ave 500 max 500 min
Histogram: 1 0 0 0 0 0 0 0 0 0
Nghost:    2178 ave 2178 max 2178 min
Histogram: 1 0 0 0 0 0 0 0 0 0
Neighs:    22881 ave 22881 max 22881 min
Histogram: 1 0 0 0 0 0 0 0 0 0

Total # of neighbors = 22881
Ave neighs/atom = 45.762
Neighbor list builds = 1
Dangerous builds = 0
WARNING: No fixes defined, atoms won't move (verlet.cpp:52)
Setting up run ...
Memory usage per processor = 1.7156 Mbytes
mystep PotEng Xy Xz Yz Lx 
          42   -7.6558572     0.156849            0            0        7.469 

Pair  time (%) = 0 (0)
Neigh time (%) = 0 (0)
Comm  time (%) = 0 (0)
Outpt time (%) = 0 (0)
Other time (%) = 0 (0)

Nlocal:    500 ave 500 max 500 min
Histogram: 1 0 0 0 0 0 0 0 0 0
Nghost:    2187 ave 2187 max 2187 min
Histogram: 1 0 0 0 0 0 0 0 0 0
Neighs:    22889 ave 22889 max 22889 min
Histogram: 1 0 0 0 0 0 0 0 0 0

Total # of neighbors = 22889
Ave neighs/atom = 45.778
Neighbor list builds = 0
Dangerous builds = 0
Setting up run ...
Memory usage per processor = 1.7156 Mbytes
mystep PotEng Xy Xz Yz Lx 
          43   -7.6558572     0.156849            0            0        7.469 
          43   -7.6558572     0.164318            0            0        7.469 

Pair  time (%) = 0.000829935 (94.9536)
Neigh time (%) = 0 (0)
Comm  time (%) = 2.5034e-05 (2.86416)
Outpt time (%) = 5.96046e-06 (0.681942)
Other time (%) = 1.3113e-05 (1.50027)

Nlocal:    500 ave 500 max 500 min
Histogram: 1 0 0 0 0 0 0 0 0 0
Nghost:    2187 ave 2187 max 2187 min
Histogram: 1 0 0 0 0 0 0 0 0 0
Neighs:    22889 ave 22889 max 22889 min
Histogram: 1 0 0 0 0 0 0 0 0 0

Total # of neighbors = 22889
Ave neighs/atom = 45.778
Neighbor list builds = 0
Dangerous builds = 0
WARNING: No fixes defined, atoms won't move (verlet.cpp:52)
Setting up run ...
Memory usage per processor = 1.7156 Mbytes
mystep PotEng Xy Xz Yz Lx 
          43   -7.6557488     0.164318            0            0        7.469 

Pair  time (%) = 0 (0)
Neigh time (%) = 0 (0)
Comm  time (%) = 0 (0)
Outpt time (%) = 0 (0)
Other time (%) = 0 (0)

Nlocal:    500 ave 500 max 500 min
Histogram: 1 0 0 0 0 0 0 0 0 0
Nghost:    2187 ave 2187 max 2187 min
Histogram: 1 0 0 0 0 0 0 0 0 0
Neighs:    22887 ave 22887 max 22887 min
Histogram: 1 0 0 0 0 0 0 0 0 0

Total # of neighbors = 22887
Ave neighs/atom = 45.774
Neighbor list builds = 0
Dangerous builds = 0
WARNING: Resetting reneighboring criteria during minimization (min.cpp:166)
Setting up minimization ...
Memory usage per processor = 2.43658 Mbytes
mystep PotEng Xy Xz Yz Lx 
          44   -7.6557488     0.164318            0            0        7.469 
          44   -7.6557638     0.164318            0            0        7.469 

Minimization stats:
  Stopping criterion = energy tolerance
  Energy initial, next-to-last, final = 
        -7.65574884255     -7.65576371028     -7.65576377953
  Force two-norm initial, final = 1.40721 0.13659
  Force max component initial, final = 0.135131 0.0245025
  Final line search alpha, max atom move = 0.00195312 4.78564e-05
  Iterations, force evaluations = 25 239

Pair  time (%) = 0.199315 (95.5276)
Neigh time (%) = 0 (0)
Comm  time (%) = 0.00605488 (2.90199)
Outpt time (%) = 0 (0)
Other time (%) = 0.00327659 (1.5704)

Nlocal:    500 ave 500 max 500 min
Histogram: 1 0 0 0 0 0 0 0 0 0
Nghost:    2187 ave 2187 max 2187 min
Histogram: 1 0 0 0 0 0 0 0 0 0
Neighs:    22887 ave 22887 max 22887 min
Histogram: 1 0 0 0 0 0 0 0 0 0

Total # of neighbors = 22887
Ave neighs/atom = 45.774
Neighbor list builds = 0
Dangerous builds = 0
WARNING: No fixes defined, atoms won't move (verlet.cpp:52)
Setting up run ...
Memory usage per processor = 1.7156 Mbytes
mystep PotEng Xy Xz Yz Lx 
          44   -7.6557638     0.164318            0            0        7.469 

Pair  time (%) = 0 (0)
Neigh time (%) = 0 (0)
Comm  time (%) = 0 (0)
Outpt time (%) = 0 (0)
Other time (%) = 0 (0)

Nlocal:    500 ave 500 max 500 min
Histogram: 1 0 0 0 0 0 0 0 0 0
Nghost:    2187 ave 2187 max 2187 min
Histogram: 1 0 0 0 0 0 0 0 0 0
Neighs:    22881 ave 22881 max 22881 min
Histogram: 1 0 0 0 0 0 0 0 0 0

Total # of neighbors = 22881
Ave neighs/atom = 45.762
Neighbor list builds = 0
Dangerous builds = 0
Setting up run ...
Memory usage per processor = 1.7156 Mbytes
mystep PotEng Xy Xz Yz Lx 
          45   -7.6557638     0.164318            0            0        7.469 
          45   -7.6557638     0.171787            0            0        7.469 

Pair  time (%) = 0.000829935 (94.9536)
Neigh time (%) = 0 (0)
Comm  time (%) = 2.5034e-05 (2.86416)
Outpt time (%) = 5.96046e-06 (0.681942)
Other time (%) = 1.3113e-05 (1.50027)

Nlocal:    500 ave 500 max 500 min
Histogram: 1 0 0 0 0 0 0 0 0 0
Nghost:    2187 ave 2187 max 2187 min
Histogram: 1 0 0 0 0 0 0 0 0 0
Neighs:    22881 ave 22881 max 22881 min
Histogram: 1 0 0 0 0 0 0 0 0 0

Total # of neighbors = 22881
Ave neighs/atom = 45.762
Neighbor list builds = 0
Dangerous builds = 0
WARNING: No fixes defined, atoms won't move (verlet.cpp:52)
Setting up run ...
Memory usage per processor = 1.7156 Mbytes
mystep PotEng Xy Xz Yz Lx 
          45   -7.6556441     0.171787            0            0        7.469 

Pair  time (%) = 0 (0)
Neigh time (%) = 0 (0)
Comm  time (%) = 0 (0)
Outpt time (%) = 0 (0)
Other time (%) = 0 (0)

Nlocal:    500 ave 500 max 500 min
Histogram: 1 0 0 0 0 0 0 0 0 0
Nghost:    2187 ave 2187 max 2187 min
Histogram: 1 0 0 0 0 0 0 0 0 0
Neighs:    22879 ave 22879 max 22879 min
Histogram: 1 0 0 0 0 0 0 0 0 0

Total # of neighbors = 22879
Ave neighs/atom = 45.758
Neighbor list builds = 0
Dangerous builds = 0
WARNING: Resetting reneighboring criteria during minimization (min.cpp:166)
Setting up minimization ...
Memory usage per processor = 2.43658 Mbytes
mystep PotEng Xy Xz Yz Lx 
          46   -7.6556441     0.171787            0            0        7.469 
          46    -7.655666     0.171787            0            0        7.469 

Minimization stats:
  Stopping criterion = energy tolerance
  Energy initial, next-to-last, final = 
        -7.65564406632     -7.65566589402     -7.65566595336
  Force two-norm initial, final = 1.41212 0.196023
  Force max component initial, final = 0.148385 0.0227265
  Final line search alpha, max atom move = 0.00188152 4.27603e-05
  Iterations, force evaluations = 53 498

Pair  time (%) = 0.414174 (95.1156)
Neigh time (%) = 0.00177884 (0.408513)
Comm  time (%) = 0.012677 (2.91128)
Outpt time (%) = 0 (0)
Other time (%) = 0.00681305 (1.56462)

Nlocal:    500 ave 500 max 500 min
Histogram: 1 0 0 0 0 0 0 0 0 0
Nghost:    2196 ave 2196 max 2196 min
Histogram: 1 0 0 0 0 0 0 0 0 0
Neighs:    22876 ave 22876 max 22876 min
Histogram: 1 0 0 0 0 0 0 0 0 0

Total # of neighbors = 22876
Ave neighs/atom = 45.752
Neighbor list builds = 1
Dangerous builds = 0
WARNING: No fixes defined, atoms won't move (verlet.cpp:52)
Setting up run ...
Memory usage per processor = 1.7156 Mbytes
mystep PotEng Xy Xz Yz Lx 
          46    -7.655666     0.171787            0            0        7.469 

Pair  time (%) = 0 (0)
Neigh time (%) = 0 (0)
Comm  time (%) = 0 (0)
Outpt time (%) = 0 (0)
Other time (%) = 0 (0)

Nlocal:    500 ave 500 max 500 min
Histogram: 1 0 0 0 0 0 0 0 0 0
Nghost:    2190 ave 2190 max 2190 min
Histogram: 1 0 0 0 0 0 0 0 0 0
Neighs:    22883 ave 22883 max 22883 min
Histogram: 1 0 0 0 0 0 0 0 0 0

Total # of neighbors = 22883
Ave neighs/atom = 45.766
Neighbor list builds = 0
Dangerous builds = 0
Setting up run ...
Memory usage per processor = 1.7156 Mbytes
mystep PotEng Xy Xz Yz Lx 
          47    -7.655666     0.171787            0            0        7.469 
          47    -7.655666     0.179256            0            0        7.469 

Pair  time (%) = 0.000829935 (94.9536)
Neigh time (%) = 0 (0)
Comm  time (%) = 2.5034e-05 (2.86416)
Outpt time (%) = 5.96046e-06 (0.681942)
Other time (%) = 1.3113e-05 (1.50027)

Nlocal:    500 ave 500 max 500 min
Histogram: 1 0 0 0 0 0 0 0 0 0
Nghost:    2190 ave 2190 max 2190 min
Histogram: 1 0 0 0 0 0 0 0 0 0
Neighs:    22883 ave 22883 max 22883 min
Histogram: 1 0 0 0 0 0 0 0 0 0

Total # of neighbors = 22883
Ave neighs/atom = 45.766
Neighbor list builds = 0
Dangerous builds = 0
WARNING: No fixes defined, atoms won't move (verlet.cpp:52)
Setting up run ...
Memory usage per processor = 1.7156 Mbytes
mystep PotEng Xy Xz Yz Lx 
          47   -7.6555391     0.179256            0            0        7.469 

Pair  time (%) = 0 (0)
Neigh time (%) = 0 (0)
Comm  time (%) = 0 (0)
Outpt time (%) = 0 (0)
Other time (%) = 0 (0)

Nlocal:    500 ave 500 max 500 min
Histogram: 1 0 0 0 0 0 0 0 0 0
Nghost:    2190 ave 2190 max 2190 min
Histogram: 1 0 0 0 0 0 0 0 0 0
Neighs:    22881 ave 22881 max 22881 min
Histogram: 1 0 0 0 0 0 0 0 0 0

Total # of neighbors = 22881
Ave neighs/atom = 45.762
Neighbor list builds = 0
Dangerous builds = 0
WARNING: Resetting reneighboring criteria during minimization (min.cpp:166)
Setting up minimization ...
Memory usage per processor = 2.43658 Mbytes
mystep PotEng Xy Xz Yz Lx 
          48   -7.6555391     0.179256            0            0        7.469 
[...]
Setting up run ...
Memory usage per processor = 1.71699 Mbytes
mystep PotEng Xy Xz Yz Lx 
        1188   -7.6237885    -0.044814            0            0        7.469 

Pair  time (%) = 0 (0)
Neigh time (%) = 0 (0)
Comm  time (%) = 0 (0)
Outpt time (%) = 0 (0)
Other time (%) = 0 (0)

Nlocal:    500 ave 500 max 500 min
Histogram: 1 0 0 0 0 0 0 0 0 0
Nghost:    2164 ave 2164 max 2164 min
Histogram: 1 0 0 0 0 0 0 0 0 0
Neighs:    22922 ave 22922 max 22922 min
Histogram: 1 0 0 0 0 0 0 0 0 0

Total # of neighbors = 22922
Ave neighs/atom = 45.844
Neighbor list builds = 0
Dangerous builds = 0
Setting up run ...
Memory usage per processor = 1.71699 Mbytes
mystep PotEng Xy Xz Yz Lx 
        1189   -7.6237885    -0.044814            0            0        7.469 
        1189   -7.6237885    -0.037345            0            0        7.469 

Pair  time (%) = 0.000833988 (94.7711)
Neigh time (%) = 0 (0)
Comm  time (%) = 2.69413e-05 (3.0615)
Outpt time (%) = 6.91414e-06 (0.785695)
Other time (%) = 1.21593e-05 (1.38174)

Nlocal:    500 ave 500 max 500 min
Histogram: 1 0 0 0 0 0 0 0 0 0
Nghost:    2164 ave 2164 max 2164 min
Histogram: 1 0 0 0 0 0 0 0 0 0
Neighs:    22922 ave 22922 max 22922 min
Histogram: 1 0 0 0 0 0 0 0 0 0

Total # of neighbors = 22922
Ave neighs/atom = 45.844
Neighbor list builds = 0
Dangerous builds = 0
WARNING: No fixes defined, atoms won't move (verlet.cpp:52)
Setting up run ...
Memory usage per processor = 1.71699 Mbytes
mystep PotEng Xy Xz Yz Lx 
        1189   -7.6234719    -0.037345            0            0        7.469 

Pair  time (%) = 0 (0)
Neigh time (%) = 0 (0)
Comm  time (%) = 0 (0)
Outpt time (%) = 0 (0)
Other time (%) = 0 (0)

Nlocal:    500 ave 500 max 500 min
Histogram: 1 0 0 0 0 0 0 0 0 0
Nghost:    2164 ave 2164 max 2164 min
Histogram: 1 0 0 0 0 0 0 0 0 0
Neighs:    22914 ave 22914 max 22914 min
Histogram: 1 0 0 0 0 0 0 0 0 0

Total # of neighbors = 22914
Ave neighs/atom = 45.828
Neighbor list builds = 0
Dangerous builds = 0
WARNING: Resetting reneighboring criteria during minimization (min.cpp:166)
Setting up minimization ...
Memory usage per processor = 2.43797 Mbytes
mystep PotEng Xy Xz Yz Lx 
        1190   -7.6234719    -0.037345            0            0        7.469 
        1190    -7.623496    -0.037345            0            0        7.469 

Minimization stats:
  Stopping criterion = energy tolerance
  Energy initial, next-to-last, final = 
        -7.62347185141     -7.62349597265     -7.62349602826
  Force two-norm initial, final = 1.50175 0.157899
  Force max component initial, final = 0.138506 0.0346855
  Final line search alpha, max atom move = 0.00390625 0.00013549
  Iterations, force evaluations = 51 486

Pair  time (%) = 0.406284 (95.5019)
Neigh time (%) = 0 (0)
Comm  time (%) = 0.0124903 (2.93599)
Outpt time (%) = 0 (0)
Other time (%) = 0.00664568 (1.56215)

Nlocal:    500 ave 500 max 500 min
Histogram: 1 0 0 0 0 0 0 0 0 0
Nghost:    2164 ave 2164 max 2164 min
Histogram: 1 0 0 0 0 0 0 0 0 0
Neighs:    22914 ave 22914 max 22914 min
Histogram: 1 0 0 0 0 0 0 0 0 0

Total # of neighbors = 22914
Ave neighs/atom = 45.828
Neighbor list builds = 0
Dangerous builds = 0
WARNING: No fixes defined, atoms won't move (verlet.cpp:52)
Setting up run ...
Memory usage per processor = 1.71699 Mbytes
mystep PotEng Xy Xz Yz Lx 
        1190    -7.623496    -0.037345            0            0        7.469 

Pair  time (%) = 0 (0)
Neigh time (%) = 0 (0)
Comm  time (%) = 0 (0)
Outpt time (%) = 0 (0)
Other time (%) = 0 (0)

Nlocal:    500 ave 500 max 500 min
Histogram: 1 0 0 0 0 0 0 0 0 0
Nghost:    2164 ave 2164 max 2164 min
Histogram: 1 0 0 0 0 0 0 0 0 0
Neighs:    22910 ave 22910 max 22910 min
Histogram: 1 0 0 0 0 0 0 0 0 0

Total # of neighbors = 22910
Ave neighs/atom = 45.82
Neighbor list builds = 0
Dangerous builds = 0
Setting up run ...
Memory usage per processor = 1.71699 Mbytes
mystep PotEng Xy Xz Yz Lx 
        1191    -7.623496    -0.037345            0            0        7.469 
        1191    -7.623496    -0.029876            0            0        7.469 

Pair  time (%) = 0.000834227 (94.9267)
Neigh time (%) = 0 (0)
Comm  time (%) = 2.67029e-05 (3.03852)
Outpt time (%) = 5.96046e-06 (0.678242)
Other time (%) = 1.19209e-05 (1.35648)

Nlocal:    500 ave 500 max 500 min
Histogram: 1 0 0 0 0 0 0 0 0 0
Nghost:    2164 ave 2164 max 2164 min
Histogram: 1 0 0 0 0 0 0 0 0 0
Neighs:    22910 ave 22910 max 22910 min
Histogram: 1 0 0 0 0 0 0 0 0 0

Total # of neighbors = 22910
Ave neighs/atom = 45.82
Neighbor list builds = 0
Dangerous builds = 0
WARNING: No fixes defined, atoms won't move (verlet.cpp:52)
Setting up run ...
Memory usage per processor = 1.71699 Mbytes
mystep PotEng Xy Xz Yz Lx 
        1191   -7.6231751    -0.029876            0            0        7.469 

Pair  time (%) = 0 (0)
Neigh time (%) = 0 (0)
Comm  time (%) = 0 (0)
Outpt time (%) = 0 (0)
Other time (%) = 0 (0)

Nlocal:    500 ave 500 max 500 min
Histogram: 1 0 0 0 0 0 0 0 0 0
Nghost:    2164 ave 2164 max 2164 min
Histogram: 1 0 0 0 0 0 0 0 0 0
Neighs:    22911 ave 22911 max 22911 min
Histogram: 1 0 0 0 0 0 0 0 0 0

Total # of neighbors = 22911
Ave neighs/atom = 45.822
Neighbor list builds = 0
Dangerous builds = 0
WARNING: Resetting reneighboring criteria during minimization (min.cpp:166)
Setting up minimization ...
Memory usage per processor = 2.43797 Mbytes
mystep PotEng Xy Xz Yz Lx 
        1192   -7.6231751    -0.029876            0            0        7.469 
        1192   -7.6232026    -0.029876            0            0        7.469 

Minimization stats:
  Stopping criterion = energy tolerance
  Energy initial, next-to-last, final = 
        -7.62317511977     -7.62320255752     -7.62320260533
  Force two-norm initial, final = 1.48261 0.0972958
  Force max component initial, final = 0.146262 0.0142158
  Final line search alpha, max atom move = 0.000976562 1.38826e-05
  Iterations, force evaluations = 50 470

Pair  time (%) = 0.392981 (95.5219)
Neigh time (%) = 0 (0)
Comm  time (%) = 0.0119939 (2.91535)
Outpt time (%) = 0 (0)
Other time (%) = 0.0064292 (1.56274)

Nlocal:    500 ave 500 max 500 min
Histogram: 1 0 0 0 0 0 0 0 0 0
Nghost:    2164 ave 2164 max 2164 min
Histogram: 1 0 0 0 0 0 0 0 0 0
Neighs:    22911 ave 22911 max 22911 min
Histogram: 1 0 0 0 0 0 0 0 0 0

Total # of neighbors = 22911
Ave neighs/atom = 45.822
Neighbor list builds = 0
Dangerous builds = 0
WARNING: No fixes defined, atoms won't move (verlet.cpp:52)
Setting up run ...
Memory usage per processor = 1.71699 Mbytes
mystep PotEng Xy Xz Yz Lx 
        1192   -7.6232026    -0.029876            0            0        7.469 

Pair  time (%) = 0 (0)
Neigh time (%) = 0 (0)
Comm  time (%) = 0 (0)
Outpt time (%) = 0 (0)
Other time (%) = 0 (0)

Nlocal:    500 ave 500 max 500 min
Histogram: 1 0 0 0 0 0 0 0 0 0
Nghost:    2160 ave 2160 max 2160 min
Histogram: 1 0 0 0 0 0 0 0 0 0
Neighs:    22914 ave 22914 max 22914 min
Histogram: 1 0 0 0 0 0 0 0 0 0

Total # of neighbors = 22914
Ave neighs/atom = 45.828
Neighbor list builds = 0
Dangerous builds = 0
Setting up run ...
Memory usage per processor = 1.71699 Mbytes
mystep PotEng Xy Xz Yz Lx 
        1193   -7.6232026    -0.029876            0            0        7.469 
        1193   -7.6232026    -0.022407            0            0        7.469 

Pair  time (%) = 0.000835896 (94.885)
Neigh time (%) = 0 (0)
Comm  time (%) = 2.69413e-05 (3.05819)
Outpt time (%) = 5.96046e-06 (0.67659)
Other time (%) = 1.21593e-05 (1.38024)

Nlocal:    500 ave 500 max 500 min
Histogram: 1 0 0 0 0 0 0 0 0 0
Nghost:    2160 ave 2160 max 2160 min
Histogram: 1 0 0 0 0 0 0 0 0 0
Neighs:    22914 ave 22914 max 22914 min
Histogram: 1 0 0 0 0 0 0 0 0 0

Total # of neighbors = 22914
Ave neighs/atom = 45.828
Neighbor list builds = 0
Dangerous builds = 0
WARNING: No fixes defined, atoms won't move (verlet.cpp:52)
Setting up run ...
Memory usage per processor = 1.71699 Mbytes
mystep PotEng Xy Xz Yz Lx 
        1193   -7.6228785    -0.022407            0            0        7.469 

Pair  time (%) = 0 (0)
Neigh time (%) = 0 (0)
Comm  time (%) = 0 (0)
Outpt time (%) = 0 (0)
Other time (%) = 0 (0)

Nlocal:    500 ave 500 max 500 min
Histogram: 1 0 0 0 0 0 0 0 0 0
Nghost:    2160 ave 2160 max 2160 min
Histogram: 1 0 0 0 0 0 0 0 0 0
Neighs:    22913 ave 22913 max 22913 min
Histogram: 1 0 0 0 0 0 0 0 0 0

Total # of neighbors = 22913
Ave neighs/atom = 45.826
Neighbor list builds = 0
Dangerous builds = 0
WARNING: Resetting reneighboring criteria during minimization (min.cpp:166)
Setting up minimization ...
Memory usage per processor = 2.43797 Mbytes
mystep PotEng Xy Xz Yz Lx 
        1194   -7.6228785    -0.022407            0            0        7.469 
        1194   -7.6229142    -0.022407            0            0        7.469 

Minimization stats:
  Stopping criterion = energy tolerance
  Energy initial, next-to-last, final = 
        -7.62287853523     -7.62291412047     -7.62291417445
  Force two-norm initial, final = 1.48796 0.137558
  Force max component initial, final = 0.143468 0.0242566
  Final line search alpha, max atom move = 0.00195312 4.73762e-05
  Iterations, force evaluations = 63 589

Pair  time (%) = 0.49388 (94.849)
Neigh time (%) = 0.0035727 (0.686133)
Comm  time (%) = 0.0151668 (2.91276)
Outpt time (%) = 0 (0)
Other time (%) = 0.00808191 (1.55212)

Nlocal:    500 ave 500 max 500 min
Histogram: 1 0 0 0 0 0 0 0 0 0
Nghost:    2159 ave 2159 max 2159 min
Histogram: 1 0 0 0 0 0 0 0 0 0
Neighs:    22895 ave 22895 max 22895 min
Histogram: 1 0 0 0 0 0 0 0 0 0

Total # of neighbors = 22895
Ave neighs/atom = 45.79
Neighbor list builds = 2
Dangerous builds = 0
WARNING: No fixes defined, atoms won't move (verlet.cpp:52)
Setting up run ...
Memory usage per processor = 1.71699 Mbytes
mystep PotEng Xy Xz Yz Lx 
        1194   -7.6229142    -0.022407            0            0        7.469 

Pair  time (%) = 0 (0)
Neigh time (%) = 0 (0)
Comm  time (%) = 0 (0)
Outpt time (%) = 0 (0)
Other time (%) = 0 (0)

Nlocal:    500 ave 500 max 500 min
Histogram: 1 0 0 0 0 0 0 0 0 0
Nghost:    2164 ave 2164 max 2164 min
Histogram: 1 0 0 0 0 0 0 0 0 0
Neighs:    22916 ave 22916 max 22916 min
Histogram: 1 0 0 0 0 0 0 0 0 0

Total # of neighbors = 22916
Ave neighs/atom = 45.832
Neighbor list builds = 0
Dangerous builds = 0
Setting up run ...
Memory usage per processor = 1.71699 Mbytes
mystep PotEng Xy Xz Yz Lx 
        1195   -7.6229142    -0.022407            0            0        7.469 
        1195   -7.6229142    -0.014938            0            0        7.469 

Pair  time (%) = 0.000838995 (94.5968)
Neigh time (%) = 0 (0)
Comm  time (%) = 2.69413e-05 (3.03763)
Outpt time (%) = 6.91414e-06 (0.77957)
Other time (%) = 1.40667e-05 (1.58602)

Nlocal:    500 ave 500 max 500 min
Histogram: 1 0 0 0 0 0 0 0 0 0
Nghost:    2164 ave 2164 max 2164 min
Histogram: 1 0 0 0 0 0 0 0 0 0
Neighs:    22916 ave 22916 max 22916 min
Histogram: 1 0 0 0 0 0 0 0 0 0

Total # of neighbors = 22916
Ave neighs/atom = 45.832
Neighbor list builds = 0
Dangerous builds = 0
WARNING: No fixes defined, atoms won't move (verlet.cpp:52)
Setting up run ...
Memory usage per processor = 1.71699 Mbytes
mystep PotEng Xy Xz Yz Lx 
        1195   -7.6225921    -0.014938            0            0        7.469 

Pair  time (%) = 0 (0)
Neigh time (%) = 0 (0)
Comm  time (%) = 0 (0)
Outpt time (%) = 0 (0)
Other time (%) = 0 (0)

Nlocal:    500 ave 500 max 500 min
Histogram: 1 0 0 0 0 0 0 0 0 0
Nghost:    2164 ave 2164 max 2164 min
Histogram: 1 0 0 0 0 0 0 0 0 0
Neighs:    22918 ave 22918 max 22918 min
Histogram: 1 0 0 0 0 0 0 0 0 0

Total # of neighbors = 22918
Ave neighs/atom = 45.836
Neighbor list builds = 0
Dangerous builds = 0
WARNING: Resetting reneighboring criteria during minimization (min.cpp:166)
Setting up minimization ...
Memory usage per processor = 2.43797 Mbytes
mystep PotEng Xy Xz Yz Lx 
        1196   -7.6225921    -0.014938            0            0        7.469 
        1196   -7.6291789    -0.014938            0            0        7.469 

Minimization stats:
  Stopping criterion = energy tolerance
  Energy initial, next-to-last, final = 
        -7.62259210922     -7.62917887679     -7.62917891652
  Force two-norm initial, final = 1.49137 0.103354
  Force max component initial, final = 0.155868 0.0250681
  Final line search alpha, max atom move = 0.00195312 4.8961e-05
  Iterations, force evaluations = 442 3221

Pair  time (%) = 2.69594 (93.6435)
Neigh time (%) = 0.0501385 (1.74156)
Comm  time (%) = 0.0860584 (2.98924)
Outpt time (%) = 0 (0)
Other time (%) = 0.046802 (1.62567)

Nlocal:    500 ave 500 max 500 min
Histogram: 1 0 0 0 0 0 0 0 0 0
Nghost:    2182 ave 2182 max 2182 min
Histogram: 1 0 0 0 0 0 0 0 0 0
Neighs:    22938 ave 22938 max 22938 min
Histogram: 1 0 0 0 0 0 0 0 0 0

Total # of neighbors = 22938
Ave neighs/atom = 45.876
Neighbor list builds = 28
Dangerous builds = 0
WARNING: No fixes defined, atoms won't move (verlet.cpp:52)
Setting up run ...
Memory usage per processor = 1.71699 Mbytes
mystep PotEng Xy Xz Yz Lx 
        1196   -7.6291789    -0.014938            0            0        7.469 

Pair  time (%) = 0 (0)
Neigh time (%) = 0 (0)
Comm  time (%) = 0 (0)
Outpt time (%) = 0 (0)
Other time (%) = 0 (0)

Nlocal:    500 ave 500 max 500 min
Histogram: 1 0 0 0 0 0 0 0 0 0
Nghost:    2182 ave 2182 max 2182 min
Histogram: 1 0 0 0 0 0 0 0 0 0
Neighs:    22960 ave 22960 max 22960 min
Histogram: 1 0 0 0 0 0 0 0 0 0

Total # of neighbors = 22960
Ave neighs/atom = 45.92
Neighbor list builds = 0
Dangerous builds = 0
Setting up run ...
Memory usage per processor = 1.71699 Mbytes
mystep PotEng Xy Xz Yz Lx 
        1197   -7.6291789    -0.014938            0            0        7.469 
        1197   -7.6291789    -0.007469            0            0        7.469 

Pair  time (%) = 0.000843048 (94.6214)
Neigh time (%) = 0 (0)
Comm  time (%) = 2.47955e-05 (2.78298)
Outpt time (%) = 6.91414e-06 (0.776024)
Other time (%) = 1.62125e-05 (1.81964)

Nlocal:    500 ave 500 max 500 min
Histogram: 1 0 0 0 0 0 0 0 0 0
Nghost:    2182 ave 2182 max 2182 min
Histogram: 1 0 0 0 0 0 0 0 0 0
Neighs:    22960 ave 22960 max 22960 min
Histogram: 1 0 0 0 0 0 0 0 0 0

Total # of neighbors = 22960
Ave neighs/atom = 45.92
Neighbor list builds = 0
Dangerous builds = 0
WARNING: No fixes defined, atoms won't move (verlet.cpp:52)
Setting up run ...
Memory usage per processor = 1.71699 Mbytes
mystep PotEng Xy Xz Yz Lx 
        1197   -7.6290689    -0.007469            0            0        7.469 

Pair  time (%) = 0 (0)
Neigh time (%) = 0 (0)
Comm  time (%) = 0 (0)
Outpt time (%) = 0 (0)
Other time (%) = 9.53674e-07 (100)

Nlocal:    500 ave 500 max 500 min
Histogram: 1 0 0 0 0 0 0 0 0 0
Nghost:    2182 ave 2182 max 2182 min
Histogram: 1 0 0 0 0 0 0 0 0 0
Neighs:    22957 ave 22957 max 22957 min
Histogram: 1 0 0 0 0 0 0 0 0 0

Total # of neighbors = 22957
Ave neighs/atom = 45.914
Neighbor list builds = 0
Dangerous builds = 0
WARNING: Resetting reneighboring criteria during minimization (min.cpp:166)
Setting up minimization ...
Memory usage per processor = 2.43797 Mbytes
mystep PotEng Xy Xz Yz Lx 
        1198   -7.6290689    -0.007469            0            0        7.469 
        1198   -7.6290796    -0.007469            0            0        7.469 

Minimization stats:
  Stopping criterion = energy tolerance
  Energy initial, next-to-last, final = 
        -7.62906886032     -7.62907948571      -7.6290795612
  Force two-norm initial, final = 1.48183 0.163136
  Force max component initial, final = 0.166706 0.0365073
  Final line search alpha, max atom move = 0.00195312 7.13034e-05
  Iterations, force evaluations = 11 108

Pair  time (%) = 0.0914385 (95.522)
Neigh time (%) = 0 (0)
Comm  time (%) = 0.00278759 (2.91208)
Outpt time (%) = 0 (0)
Other time (%) = 0.00149894 (1.56588)

Nlocal:    500 ave 500 max 500 min
Histogram: 1 0 0 0 0 0 0 0 0 0
Nghost:    2182 ave 2182 max 2182 min
Histogram: 1 0 0 0 0 0 0 0 0 0
Neighs:    22957 ave 22957 max 22957 min
Histogram: 1 0 0 0 0 0 0 0 0 0

Total # of neighbors = 22957
Ave neighs/atom = 45.914
Neighbor list builds = 0
Dangerous builds = 0
WARNING: No fixes defined, atoms won't move (verlet.cpp:52)
Setting up run ...
Memory usage per processor = 1.71699 Mbytes
mystep PotEng Xy Xz Yz Lx 
        1198   -7.6290796    -0.007469            0            0        7.469 

Pair  time (%) = 0 (0)
Neigh time (%) = 0 (0)
Comm  time (%) = 0 (0)
Outpt time (%) = 0 (0)
Other time (%) = 0 (0)

Nlocal:    500 ave 500 max 500 min
Histogram: 1 0 0 0 0 0 0 0 0 0
Nghost:    2182 ave 2182 max 2182 min
Histogram: 1 0 0 0 0 0 0 0 0 0
Neighs:    22962 ave 22962 max 22962 min
Histogram: 1 0 0 0 0 0 0 0 0 0

Total # of neighbors = 22962
Ave neighs/atom = 45.924
Neighbor list builds = 0
Dangerous builds = 0
Setting up run ...
Memory usage per processor = 1.71699 Mbytes
mystep PotEng Xy Xz Yz Lx 
        1199   -7.6290796    -0.007469            0            0        7.469 
        1199   -7.6290796 -8.8817842e-16            0            0        7.469 

Pair  time (%) = 0.000838041 (94.4892)
Neigh time (%) = 0 (0)
Comm  time (%) = 2.69413e-05 (3.03763)
Outpt time (%) = 5.96046e-06 (0.672043)
Other time (%) = 1.5974e-05 (1.80108)

Nlocal:    500 ave 500 max 500 min
Histogram: 1 0 0 0 0 0 0 0 0 0
Nghost:    2182 ave 2182 max 2182 min
Histogram: 1 0 0 0 0 0 0 0 0 0
Neighs:    22962 ave 22962 max 22962 min
Histogram: 1 0 0 0 0 0 0 0 0 0

Total # of neighbors = 22962
Ave neighs/atom = 45.924
Neighbor list builds = 0
Dangerous builds = 0
WARNING: No fixes defined, atoms won't move (verlet.cpp:52)
Setting up run ...
Memory usage per processor = 1.71699 Mbytes
mystep PotEng Xy Xz Yz Lx 
        1199   -7.6289533 -8.8817842e-16            0            0        7.469 

Pair  time (%) = 0 (0)
Neigh time (%) = 0 (0)
Comm  time (%) = 0 (0)
Outpt time (%) = 0 (0)
Other time (%) = 0 (0)

Nlocal:    500 ave 500 max 500 min
Histogram: 1 0 0 0 0 0 0 0 0 0
Nghost:    2182 ave 2182 max 2182 min
Histogram: 1 0 0 0 0 0 0 0 0 0
Neighs:    22957 ave 22957 max 22957 min
Histogram: 1 0 0 0 0 0 0 0 0 0

Total # of neighbors = 22957
Ave neighs/atom = 45.914
Neighbor list builds = 0
Dangerous builds = 0
WARNING: Resetting reneighboring criteria during minimization (min.cpp:166)
Setting up minimization ...
Memory usage per processor = 2.43797 Mbytes
mystep PotEng Xy Xz Yz Lx 
        1200   -7.6289533 -8.8817842e-16            0            0        7.469 
        1200   -7.6289703 -8.8817842e-16            0            0        7.469 

Minimization stats:
  Stopping criterion = energy tolerance
  Energy initial, next-to-last, final = 
        -7.62895326102     -7.62897028366     -7.62897033679
  Force two-norm initial, final = 1.52609 0.145947
  Force max component initial, final = 0.16818 0.0282448
  Final line search alpha, max atom move = 0.00195312 5.51657e-05
  Iterations, force evaluations = 29 279

Pair  time (%) = 0.235045 (94.0952)
Neigh time (%) = 0.00356984 (1.42911)
Comm  time (%) = 0.00733232 (2.93534)
Outpt time (%) = 0 (0)
Other time (%) = 0.00384784 (1.5404)

Nlocal:    500 ave 500 max 500 min
Histogram: 1 0 0 0 0 0 0 0 0 0
Nghost:    2183 ave 2183 max 2183 min
Histogram: 1 0 0 0 0 0 0 0 0 0
Neighs:    22958 ave 22958 max 22958 min
Histogram: 1 0 0 0 0 0 0 0 0 0

Total # of neighbors = 22958
Ave neighs/atom = 45.916
Neighbor list builds = 2
Dangerous builds = 0
WARNING: No fixes defined, atoms won't move (verlet.cpp:52)
Setting up run ...
Memory usage per processor = 1.71699 Mbytes
mystep PotEng Xy Xz Yz Lx 
        1200   -7.6289703 -8.8817842e-16            0            0        7.469 

Pair  time (%) = 0 (0)
Neigh time (%) = 0 (0)
Comm  time (%) = 0 (0)
Outpt time (%) = 0 (0)
Other time (%) = 0 (0)

Nlocal:    500 ave 500 max 500 min
Histogram: 1 0 0 0 0 0 0 0 0 0
Nghost:    2182 ave 2182 max 2182 min
Histogram: 1 0 0 0 0 0 0 0 0 0
Neighs:    22958 ave 22958 max 22958 min
Histogram: 1 0 0 0 0 0 0 0 0 0

Total # of neighbors = 22958
Ave neighs/atom = 45.916
Neighbor list builds = 0
Dangerous builds = 0
