ITEM: TIMESTEP
140
ITEM: NUMBER OF ATOMS
500
ITEM: BOX BOUNDS xy xz yz pp pp pp
-3.7345 3.7345 0
-3.7345 3.7345 0
-3.7345 3.7345 0
ITEM: ATOMS type x y z 
1 -0.575741 2.51796 -0.302257 
1 0.51646 0.532621 -1.44912 
1 1.86604 0.447789 -0.183097 
1 -0.114707 -2.47069 0.920926 
1 2.71503 0.993203 -0.454405 
1 3.14449 -0.559549 -2.62373 
1 0.256889 -0.504458 -1.06178 
1 -1.58977 -3.34968 0.0298896 
1 2.15787 -1.38113 -1.1044 
1 2.94836 -0.633571 3.72519 
1 -3.24159 1.78378 1.02067 
1 1.13358 -1.41291 0.237261 
1 -0.160479 0.722325 -0.658386 
1 -1.42359 3.7141 2.87053 
1 2.46569 2.81227 1.65396 
1 -1.32339 2.3767 -3.47122 
1 3.44477 1.3341 -2.21477 
1 2.41287 -2.52978 -3.2436 
1 2.48863 3.28529 -1.98083 
1 2.68024 -3.13541 -1.63093 
1 -3.11949 0.244825 -1.00666 
1 0.96649 -3.6297 1.57712 
1 0.933289 -0.614515 3.23001 
1 -3.53627 2.52017 -3.19913 
1 2.5925 -2.02174 2.61147 
1 -0.625629 -0.884121 -0.246428 
1 2.40961 1.67692 1.6725 
1 1.50374 -1.15719 -2.75906 
1 -0.538445 2.14798 0.710315 
1 -1.39954 1.90774 0.0890866 
1 -1.59428 1.39248 -3.36823 
1 -1.20581 -3.68104 0.964144 
1 -2.82026 2.74202 -1.08802 
1 -3.61608 -1.69706 -1.03598 
1 -1.29788 0.617773 3.2575 
1 0.77518 -2.60482 1.4774 
1 2.18832 -0.586433 -0.369032 
1 0.578274 3.33945 -3.11334 
1 -1.63578 -3.59539 -1.20786 
1 1.33999 -0.37922 0.309748 
1 1.83751 3.41931 1.05224 
1 -0.121611 -2.31793 -2.15191 
1 0.285664 3.12271 3.33617 
1 -2.78096 -0.589647 2.44394 
1 1.07614 1.50847 -2.61256 
1 -3.2157 -3.40736 2.46207 
1 0.117852 1.36219 -3.1532 
1 -0.950161 3.47384 -0.485626 
1 2.24577 -0.871748 -2.0337 
1 -2.19288 0.611172 -1.46729 
1 3.62491 -0.53507 2.20241 
1 -1.55354 -3.4907 -3.04515 
1 0.0401249 0.351925 0.403682 
1 0.0354035 -0.919887 2.7096 
1 1.90478 -2.19575 3.36396 
1 -0.806139 2.92631 1.47728 
1 2.78464 -2.33149 -2.28655 
1 0.667421 3.42703 0.67684 
1 1.77328 2.3981 -1.88805 
1 0.909291 -2.31946 3.13035 
1 2.87821 2.25439 0.784908 
1 -0.285835 -2.14448 -3.19566 
1 3.67218 -0.534032 1.07491 
1 2.2187 1.53043 -2.45049 
1 -0.494962 -3.232 0.270871 
1 1.36731 -3.25259 0.499187 
1 3.43882 -2.77976 -3.49053 
1 2.98234 -1.82818 3.62039 
1 2.1483 -0.356307 -3.05247 
1 2.04976 1.70991 -1.05757 
1 -1.55204 -0.267119 -1.55865 
1 2.66325 -2.37759 1.60263 
1 -3.54677 -0.699177 -1.60881 
1 0.878716 -0.828942 2.11388 
1 3.1589 -3.15155 2.25021 
1 0.595537 -1.54515 1.1734 
1 -2.53267 -1.63148 -1.27033 
1 -0.509861 1.37308 1.42964 
1 -2.0616 1.56941 2.41952 
1 0.419486 2.89536 -0.248703 
1 -0.383058 3.19648 0.490713 
1 -3.12184 -1.62348 2.44022 
1 2.2556 0.681323 2.89914 
1 -0.984255 -2.12586 3.4072 
1 0.709149 -1.92059 -2.70523 
1 3.5974 -2.96848 -0.849432 
1 2.9322 -3.35872 -2.6747 
1 -3.5956 2.11279 -1.57912 
1 -0.876272 -3.58839 1.96898 
1 3.4505 2.99813 -2.35597 
1 0.690206 -3.36966 -1.20413 
1 -0.533717 -1.76236 2.4452 
1 -3.48017 -2.51802 1.84539 
1 1.46531 0.144093 1.3299 
1 1.29079 -1.90502 -0.742436 
1 -2.26348 1.47002 0.707109 
1 -1.50689 2.95833 0.328576 
1 3.41039 2.1254 1.76167 
1 -1.57007 -1.69188 2.28913 
1 -2.99129 0.753729 -3.1776 
1 -2.77954 -1.56176 -3.03628 
1 1.8815 -2.46891 -1.48571 
1 0.335534 1.33839 0.756366 
1 3.72078 -2.79555 -2.11482 
1 -0.942509 -0.174636 1.78461 
1 -3.38783 -3.70274 0.849834 
1 -2.42716 3.29438 2.68689 
1 0.0366596 -1.74332 3.35626 
1 2.48023 3.49179 3.21568 
1 2.39914 0.633926 1.42596 
1 1.67057 3.2402 -2.7135 
1 -3.59618 0.862928 3.15558 
1 3.18504 -1.39854 -1.93701 
1 -1.93172 0.0509514 -0.525853 
1 -2.23804 3.4145 -0.434548 
1 3.34237 -1.58053 2.02225 
1 2.22355 1.40741 -3.70285 
1 -1.73872 -0.632665 2.31679 
1 3.39588 0.156622 -0.597469 
1 -3.7309 3.64816 -3.21191 
1 -1.49376 1.57705 -1.74977 
1 3.12932 0.104427 2.91408 
1 2.69762 -2.91451 3.21816 
1 0.49106 2.38488 0.670268 
1 1.38697 1.93816 2.07104 
1 -0.888532 -3.19466 3.67359 
1 3.28371 -3.11475 1.19199 
1 1.97579 -0.244975 3.35108 
1 -2.49506 2.57201 1.00117 
1 -3.10508 1.66785 -2.6669 
1 -2.6096 -3.5121 -3.2234 
1 1.36931 2.07508 3.22029 
1 2.15471 3.56346 0.0150848 
1 -2.00959 2.60373 1.95563 
1 0.153692 0.104407 3.00581 
1 -1.91761 3.27099 3.71742 
1 1.60167 -1.35745 2.70309 
1 1.72372 2.2287 -3.09933 
1 -2.22675 0.00873986 -2.38937 
1 -0.450543 3.49196 -2.94035 
1 -0.278886 1.03551 3.39126 
1 1.20736 2.27419 -0.669554 
1 -0.430831 -1.46679 0.783657 
1 1.53622 1.02098 -1.74791 
1 -0.254227 1.61887 2.48025 
1 0.172089 3.32679 2.06475 
1 -0.104086 -3.53116 1.23917 
1 2.94136 2.12645 -2.99586 
1 -1.08753 2.58402 -2.40618 
1 3.07138 -1.43455 0.988828 
1 -3.3531 -0.0101941 0.16248 
1 1.74245 -2.15371 -2.48096 
1 -3.1956 1.66579 3.70023 
1 1.87901 -2.22196 0.133507 
1 2.62913 -0.88882 2.68465 
1 -2.68594 -1.1034 3.40242 
1 2.53194 -1.46716 -2.8785 
1 2.68625 -0.47104 1.63631 
1 2.007 -3.48641 -3.45596 
1 -1.99907 2.04888 -2.60633 
1 -2.95114 3.28623 1.71264 
1 -1.26322 -2.51491 -0.605258 
1 1.99053 0.134186 -2.07852 
1 -0.385657 1.21412 -1.58769 
1 1.31505 -2.64443 -3.33516 
1 -0.925552 -1.29814 -3.32626 
1 0.890261 1.81883 -1.57416 
1 -1.96205 -0.0758247 1.41045 
1 2.34025 1.2928 0.53827 
1 -0.918566 1.721 -0.855125 
1 -1.9672 0.416415 -3.3564 
1 -1.22096 -1.03437 -2.23681 
1 -1.25114 0.567998 -2.1929 
1 -3.50944 2.98864 2.61491 
1 3.07532 1.10119 2.38102 
1 -2.01964 1.50144 -0.788701 
1 3.45239 0.244452 -1.75239 
1 0.915525 -3.62256 -2.215 
1 0.692926 2.29634 -3.46233 
1 -2.07781 -1.71553 -2.26072 
1 -1.70501 0.470047 2.30197 
1 2.15347 -1.23442 0.529931 
1 -3.70539 2.19852 0.114935 
1 -1.4047 -1.76749 -1.40845 
1 3.34471 -3.40196 0.110295 
1 0.907131 2.98816 -1.46063 
1 1.35724 -1.52101 -1.75322 
1 -0.416574 -2.05001 -1.12878 
1 -2.69734 -3.12894 1.45386 
1 0.615044 -3.09004 2.48349 
1 -2.74402 0.527031 2.59696 
1 0.304136 -1.44638 -1.61823 
1 2.21604 -1.42912 1.79267 
1 -1.33926 -1.05791 1.3436 
1 0.538945 1.27645 1.78609 
1 3.12518 -2.361 0.412347 
1 3.54707 -1.83885 -2.89332 
1 0.718262 0.154051 -0.398804 
1 -1.14024 3.62628 -2.13417 
1 -2.40856 2.21439 -0.0376124 
1 2.60854 -2.80704 -0.415497 
1 -2.38527 0.229865 0.481856 
1 0.0638545 1.90839 -2.23526 
1 3.16257 -0.649707 0.127736 
1 2.65471 1.00699 -1.59098 
1 -2.63668 2.27188 2.98003 
1 1.26593 3.4578 -0.558953 
1 -1.9177 3.6428 1.81466 
1 -0.670033 -0.982352 -1.31104 
1 -1.51891 2.17633 1.10683 
1 3.33578 2.94002 3.52291 
1 -0.264614 2.17579 3.38838 
1 0.298414 -1.44845 -0.544874 
1 -3.10964 0.784707 -1.99186 
1 3.61301 -2.40125 2.85224 
1 3.12272 1.92994 -0.751734 
1 -2.96449 2.63387 -2.27597 
1 -0.0730107 2.96009 -2.08262 
1 -2.18701 1.0478 -2.49553 
1 -3.02495 -2.5851 -1.36715 
1 1.82944 0.711073 -2.9437 
1 -0.844345 -0.364455 2.84266 
1 1.84314 -3.03454 1.49705 
1 2.52512 0.038203 -1.16022 
1 -3.62856 3.38686 -0.614373 
1 1.40985 2.80273 0.244967 
1 -0.578534 0.60942 2.41091 
1 3.07889 -0.885657 -0.948295 
1 -0.180698 -1.2863 -2.54402 
1 1.82865 -0.215541 2.27921 
1 -1.6033 -0.980501 -0.719172 
1 1.2231 0.401323 3.00418 
1 0.374592 -3.03729 -2.95874 
1 0.891517 0.434724 -2.45659 
1 -2.22866 -3.09069 2.60079 
1 -0.54929 -0.429001 0.803656 
1 -0.872167 0.637307 -3.22702 
1 0.621254 -0.672132 -3.05989 
1 -2.86427 -3.6383 -1.2583 
1 -2.16055 -3.49651 -2.13932 
1 -3.03579 3.24706 3.55487 
1 0.195063 -0.378835 -2.11957 
1 1.5958 -2.01978 1.13641 
1 -1.91812 -1.92781 1.08156 
1 -2.08156 3.09965 -2.70181 
1 -1.16772 1.66525 3.15281 
1 1.46404 1.23839 1.18635 
1 -3.01488 3.02556 0.168703 
1 2.85729 0.508266 -2.59131 
1 0.541908 2.39226 2.59549 
1 2.83579 2.16331 -1.91015 
1 3.38551 0.360462 1.6579 
1 -1.14271 -2.09296 -2.50365 
1 0.12138 0.264635 -3.35763 
1 2.9144 3.36372 0.799823 
1 -3.37197 -2.60219 0.718135 
1 -1.20036 -2.51587 0.570507 
1 3.63278 0.131392 -3.39563 
1 2.94906 2.5965 2.60267 
1 -2.00097 -2.59396 -1.66699 
1 3.19448 2.85555 -1.24928 
1 2.4024 -3.07891 0.628046 
1 3.42437 1.16607 -3.28068 
1 0.317162 -0.711997 0.198638 
1 -1.23957 -0.317143 -3.64947 
1 -2.95541 2.16969 1.95071 
1 -1.58878 -1.17014 3.23448 
1 -3.12309 1.78623 -0.683405 
1 -3.14284 -2.60409 -2.95617 
1 -1.91482 -2.89123 3.61504 
1 0.834134 -2.44468 -1.70376 
1 -0.942881 -2.82949 -1.63996 
1 -2.74193 -1.66485 0.459763 
1 2.65049 0.426164 -3.61984 
1 1.46591 0.161874 -1.11441 
1 0.440148 -2.49116 -0.665081 
1 3.70938 1.13285 -0.0374 
1 1.50787 -2.95332 -0.565544 
1 3.68165 1.09502 -1.1486 
1 1.15798 0.123502 -3.46551 
1 1.73215 -3.63251 -1.43972 
1 2.20458 2.14249 -0.0808335 
1 3.16238 1.86224 3.45411 
1 -2.13045 -0.139434 3.19964 
1 -0.57755 1.21437 0.171074 
1 -0.164019 0.622277 -2.40189 
1 -0.230798 -2.70969 1.9729 
1 -3.42048 1.14694 1.9861 
1 -1.58471 2.61748 2.94159 
1 2.7943 3.70824 -0.806653 
1 -3.40386 -0.759562 -0.559424 
1 -1.63534 0.889654 0.0861636 
1 1.15805 1.2216 -3.64603 
1 -3.62435 1.89952 2.70902 
1 0.699264 0.233495 2.09273 
1 -2.10757 -1.89723 -0.350401 
1 -0.393894 -3.13326 -0.779807 
1 -2.45493 -0.802273 -0.0742283 
1 1.58041 0.896709 2.14922 
1 1.22248 -0.841323 -0.73475 
1 -0.115261 -3.44329 -1.94528 
1 -2.38288 -1.23461 1.70785 
1 -2.4993 2.41219 -3.44291 
1 -1.35687 -1.48809 0.254845 
1 1.561 -2.3498 2.25411 
1 1.77509 2.24986 1.04021 
1 -0.570525 2.83357 2.59424 
1 -2.68369 -0.896848 -2.17207 
1 -0.945916 -2.06542 1.51037 
1 0.711189 1.28528 2.81243 
1 -2.75386 -0.279365 -3.37848 
1 1.43212 3.10053 3.65519 
1 2.97202 2.85798 -0.165446 
1 -3.02006 -2.93552 3.42494 
1 -3.35636 -1.59152 1.28799 
1 1.06174 0.639067 0.448323 
1 -0.784685 3.19368 3.58397 
1 -0.202381 -0.978421 1.6982 
1 -0.904735 2.84566 -1.38794 
1 2.12211 2.84991 -0.938907 
1 1.09964 3.43853 2.61853 
1 -3.23466 -1.81815 -2.08137 
1 -1.56462 -0.446331 0.440915 
1 3.55546 -3.70593 -1.60924 
1 -2.32973 -2.70774 0.47442 
1 -3.02843 -3.37663 -0.0845071 
1 -2.74992 -0.651563 0.937803 
1 -0.187363 -0.680546 3.70837 
1 1.18177 -0.513148 -1.84829 
1 -2.27314 -2.91316 -0.668248 
1 0.539901 -0.359662 1.16373 
1 0.969369 2.78087 1.54609 
1 2.25603 -3.72444 2.21807 
1 -2.50729 -0.589074 -1.16438 
1 2.89961 -2.15116 -1.21651 
1 -1.82203 -1.85838 -3.43271 
1 -3.33448 -1.93836 3.63013 
1 -1.03945 0.517624 0.913049 
1 -1.92472 -0.848592 -3.02141 
1 -0.0385335 3.35473 -1.06215 
1 1.23941 1.69352 0.246116 
1 2.33025 2.49316 3.54833 
1 -0.526365 0.0954734 -1.48979 
1 -0.293925 2.44069 -3.07983 
1 0.255413 1.7922 -0.270776 
1 -3.26756 0.751524 0.87623 
1 -1.92671 2.65383 -1.71925 
1 -1.6447 -2.86251 1.52141 
1 1.47294 -0.914467 1.24995 
1 -3.58232 -0.93785 -3.35341 
1 -3.36342 -0.201848 3.19586 
1 -0.689749 -2.99849 -2.73524 
1 -0.893799 0.162125 -0.11014 
1 1.89394 2.76233 2.57586 
1 -1.21154 -2.70808 2.52398 
1 -3.13912 -2.34626 -0.314407 
1 3.37826 3.38832 1.77214 
1 1.12911 1.13736 -0.696421 
1 -1.11457 2.07021 2.09663 
1 -3.34292 -0.154219 -2.51105 
1 3.55348 -3.54458 3.22525 
1 -2.71581 0.891037 -0.258097 
1 -1.51164 1.22677 1.57424 
1 -0.00946327 2.24711 -1.20828 
1 2.31358 -0.18687 0.667738 
1 0.471671 -3.40817 -0.132544 
1 2.27998 1.74087 2.73698 
1 -2.28181 3.62519 0.746624 
1 -1.64749 2.56609 -0.702262 
1 -0.120088 0.402681 1.46193 
1 -3.07144 0.0548143 1.67365 
1 1.87853 -3.19074 -2.43162 
1 0.0409436 2.25759 1.65226 
1 -3.15174 3.70918 -2.32372 
1 3.27278 1.29581 1.09029 
1 1.03129 -1.51505 -3.6608 
1 2.67359 3.17742 -3.13474 
1 -1.23016 0.712366 -0.998677 
1 -2.11409 -2.63017 -2.78762 
1 3.73364 -1.57304 0.0812339 
1 0.0533613 -2.80142 3.51052 
1 -0.405529 -2.12037 -0.0637518 
1 2.7185 -1.64621 -0.257784 
1 0.855954 -3.45486 3.57542 
1 -0.85315 1.54288 -2.61064 
1 0.521695 -1.86864 2.23097 
1 1.70279 -3.17943 3.01158 
1 2.07293 -1.22119 3.6681 
1 -2.31877 1.14818 3.37511 
1 -0.615855 -0.320982 -2.78626 
1 -2.58686 1.73819 -1.69114 
1 -2.41583 -2.25745 1.99189 
1 0.77802 -2.3931 0.3459 
1 0.874556 2.56417 -2.44196 
1 -3.63978 2.76524 1.02277 
1 3.62346 -1.17103 3.06291 
1 -0.299486 -3.55373 2.85978 
1 -2.48485 0.932362 1.6031 
1 3.1736 0.396395 0.537688 
1 -2.33508 -2.07489 3.06822 
2 -0.399526 -2.54557 2.83011 
2 0.708788 0.601531 1.24221 
2 -2.86823 1.08579 -1.1479 
2 1.80565 0.600813 3.65265 
2 2.63648 0.256229 2.1941 
2 -2.4615 1.50511 -3.25606 
2 3.00766 -0.518263 -1.74268 
2 -0.762703 -3.70065 -1.35175 
2 -3.52021 -3.40765 1.66334 
2 -2.98769 -2.53171 2.62037 
2 2.2635 2.82405 0.510688 
2 -3.31114 -0.873428 0.327029 
2 -2.79093 -2.87222 -2.18145 
2 3.3844 -2.21713 -0.440691 
2 -1.46577 -2.97653 -2.31444 
2 0.478249 1.15545 -2.05716 
2 3.62217 3.23488 0.276687 
2 2.66724 0.109548 -0.126705 
2 -0.0516596 -3.64312 -3.67579 
2 0.401506 1.63259 3.53061 
2 -1.88399 0.720398 0.974658 
2 -2.22607 1.8164 1.54183 
2 2.33509 2.59456 -2.54363 
2 1.43494 -3.28218 2.21246 
2 -2.93279 3.14914 -3.01832 
2 -1.45364 -0.0688846 -2.81251 
2 -1.26009 3.15711 -3.08116 
2 -2.54542 3.25245 -1.83492 
2 -1.00204 -1.6348 -0.590777 
2 -0.651841 -1.65597 -1.88907 
2 -1.94695 1.96434 3.4723 
2 -2.42213 -3.57712 3.34265 
2 2.2772 -1.74314 -1.89151 
2 0.721912 -1.11966 -2.31352 
2 -1.30344 -2.58669 -3.25644 
2 0.463848 0.970874 -0.0856806 
2 -0.785154 -2.94367 1.28141 
2 1.88831 0.576904 0.697623 
2 0.518393 -3.13903 0.763884 
2 1.77298 -1.86064 -3.28994 
2 -3.41441 2.45814 3.37243 
2 -0.556682 0.170857 3.52752 
2 -2.79851 0.412393 3.49499 
2 1.21211 -3.50131 -3.05542 
2 -3.59866 0.320338 2.42057 
2 -2.04829 -1.13374 0.72644 
2 0.324213 1.36263 -1.06182 
2 0.282073 -1.6568 0.321032 
2 3.4518 -2.20384 1.2262 
2 0.906353 1.91915 1.28583 
2 -3.18917 -0.83857 1.69785 
2 -2.73842 -2.23943 1.18139 
2 -2.55966 -2.32728 -3.55554 
2 0.197647 -1.39298 -3.325 
2 -3.56709 -1.06028 -2.45115 
2 -1.18604 1.4051 0.780891 
2 -1.20832 1.22302 2.40378 
2 -0.114371 -0.140499 -0.347294 
2 -3.71846 0.625279 -2.63941 
2 2.13454 -2.16232 -0.714298 
2 0.755365 -1.42856 2.95012 
2 -0.135513 -0.187542 2.19107 
2 3.6556 2.15801 -2.43455 
2 2.92407 -3.53293 -3.5848 
2 1.36366 -0.269849 -2.67246 
2 -3.64191 2.5052 -0.731724 
2 -2.90457 1.40185 2.74805 
2 -0.940998 -1.00488 2.19865 
2 1.8927 -0.574128 -1.2814 
2 -3.01868 1.59357 0.19227 
2 2.30921 -2.8414 2.35304 
2 0.555495 0.699164 3.49683 
2 1.83895 -1.38564 -0.279651 
2 2.421 -2.04146 0.819819 
2 1.07674 -2.74963 -2.48639 
2 2.99216 1.00862 3.28234 
2 -0.7118 1.62635 -3.50516 
2 -0.102218 -1.8772 1.60456 
2 -1.03298 -0.292156 -0.842358 
2 1.29052 -1.58066 1.85161 
2 1.88987 1.33372 -0.239124 
2 -2.92541 -1.49459 -0.431437 
2 3.11747 3.47391 2.60506 
2 0.0502962 -2.75634 -1.42046 
2 -3.46514 3.01297 -1.63291 
2 1.57864 1.24399 3.00273 
2 0.548973 -2.25285 -3.50948 
2 1.42821 -0.70867 -3.51577 
2 -1.92341 -1.07361 -1.64401 
2 3.00359 1.68906 0.09795 
2 1.61383 3.25913 1.88894 
2 -0.708234 2.04004 -1.77328 
2 2.02529 0.811792 -1.00335 
2 0.0986587 3.02831 1.22586 
2 -0.691616 -1.23381 3.19353 
2 -2.28647 -1.30149 2.61784 
2 -2.86465 -0.0692326 -1.78273 
2 -1.70405 3.043 1.2025 
2 2.55621 -3.57887 1.40831 
2 -1.3186 3.10143 2.20396 
