ITEM: TIMESTEP
1806
ITEM: NUMBER OF ATOMS
500
ITEM: BOX BOUNDS xy xz yz pp pp pp
-4.10795 3.7345 -0.37345
-3.7345 3.7345 0
-3.7345 3.7345 0
ITEM: ATOMS type x y z 
1 -3.25053 -2.69835 -2.92731 
1 -2.63093 -3.51389 -3.21888 
2 -2.68683 -2.33634 -3.52294 
1 -2.18818 -2.60355 -2.82346 
2 -1.5047 -2.92031 -2.38277 
2 -1.3538 -2.50681 -3.27615 
1 -1.59517 -3.42112 -3.08648 
1 -0.707391 -3.02224 -2.72418 
1 -2.97806 -1.62233 -2.99267 
2 -3.70185 -1.06739 -2.46408 
1 -3.7556 -0.989729 -3.38075 
1 -1.20802 -2.07551 -2.50602 
1 -1.98388 -1.79514 -3.43574 
1 -2.1142 -1.63698 -2.35215 
1 -2.07048 -0.804295 -3.02961 
1 -1.31377 -0.943222 -2.17823 
1 -1.07404 -1.25469 -3.30341 
1 -2.93583 -0.290509 -3.36113 
1 -3.45839 -0.123329 -2.44153 
1 -3.1414 0.75581 -3.21701 
1 -1.38226 -0.27011 -3.6543 
2 -1.59054 -0.0137662 -2.83117 
1 -2.38546 0.0119086 -2.43506 
1 -2.12382 0.42902 -3.3785 
1 -1.03136 0.687226 -3.21475 
1 -0.758567 -0.27176 -2.80315 
1 -3.35173 1.635 -2.69905 
2 -2.65834 1.53767 -3.2375 
1 -2.36928 1.06313 -2.51865 
1 -1.08771 1.55845 -2.59382 
1 -1.78462 1.43397 -3.36829 
2 -0.896711 1.5606 -3.52813 
2 -2.79661 -2.1915 -2.31999 
1 -3.05755 -2.8517 -1.80795 
1 -2.77383 -3.71739 -1.30587 
1 -2.18696 -3.45554 -2.17235 
1 -1.99838 -2.52632 -1.7729 
1 -1.01794 -2.84646 -1.67539 
1 -3.53116 -1.82688 -2.01386 
1 -2.8467 -0.943268 -2.1724 
1 -3.76391 -1.69819 -0.974129 
1 -2.69134 -1.84447 -1.42415 
1 -1.57221 -1.66437 -1.36667 
2 -2.15163 -1.11499 -1.65374 
1 -1.75431 -0.865626 -0.615614 
2 -0.787224 -1.6126 -1.85785 
1 -0.596031 -2.0389 -1.11748 
1 -0.784508 -0.962905 -1.24511 
2 -2.8001 -0.196665 -1.69253 
1 -3.72016 -0.749389 -1.60216 
1 -2.75223 -0.844666 -1.08339 
1 -3.33191 0.144949 -1.11417 
1 -1.87443 -0.286478 -1.54847 
2 -1.20864 -0.268545 -0.958999 
1 -1.45266 0.588127 -2.17606 
1 -2.39838 0.641283 -1.53165 
1 -0.72215 0.0775241 -1.58425 
1 -3.31732 0.840371 -1.97629 
2 -3.1052 1.03133 -1.11929 
1 -2.80804 1.75107 -1.60842 
1 -2.35353 1.29274 -0.684167 
1 -1.45457 0.57946 -1.01897 
1 -1.72708 1.60789 -1.71242 
1 -3.25243 -2.34966 -0.308375 
1 -2.47313 -2.79887 -0.858844 
1 -3.01943 -3.37889 -0.133503 
1 -3.50144 -2.48897 0.731697 
1 -2.30522 -2.63464 0.254581 
1 -1.45715 -2.52375 -0.680502 
1 -1.28851 -2.58196 0.63396 
1 -1.51272 -3.38846 -0.0629812 
1 -0.632513 -3.28123 -0.808182 
1 -0.446484 -3.1018 0.238448 
1 -3.61059 -0.766157 -0.478979 
2 -3.09131 -1.46942 -0.400541 
1 -2.8005 -1.69377 0.458701 
2 -3.44017 -0.955259 0.426758 
1 -2.26248 -1.79949 -0.470467 
2 -1.298 -1.65274 -0.530925 
1 -1.59949 -1.54461 0.319094 
1 -0.644086 -2.0885 -0.0667996 
1 -0.789025 -0.998511 -0.186874 
1 -0.627789 -1.4897 0.802794 
1 -2.65177 -0.774529 -0.0203266 
1 -3.5479 -0.0987272 0.298987 
1 -2.54945 0.216407 0.452871 
1 -1.12324 0.00751768 -0.149291 
1 -1.77586 -0.497154 0.543684 
1 -2.35096 0.0962233 -0.603662 
1 -3.21904 0.761243 -0.258734 
1 -3.34258 1.76181 -0.635147 
2 -3.3601 1.49705 0.236826 
1 -1.24928 1.58029 -0.746825 
1 -2.57168 1.25931 0.466361 
1 -1.73283 0.828479 0.0189375 
1 -0.784461 1.35086 0.2206 
1 -2.74037 -2.93906 1.28152 
2 -3.48657 -3.30703 1.63249 
1 -1.73162 -2.95968 1.57829 
2 -0.810059 -2.91597 1.30185 
1 -1.17865 -3.65618 0.935323 
2 -2.91889 -2.07285 1.31141 
1 -3.52827 -1.5037 1.17248 
1 -2.55236 -1.30953 1.7204 
2 -3.3482 -0.864301 1.73754 
1 -1.07297 -2.10952 1.56381 
1 -2.05582 -2.04135 1.15044 
2 -2.20148 -1.20188 0.89854 
1 -1.46368 -1.12037 1.40304 
1 -2.86335 -0.646103 1.00411 
1 -3.2192 0.0719327 1.67793 
1 -1.10208 -0.149861 1.75463 
1 -2.10607 0.0118389 1.42745 
2 -2.00978 0.747262 0.901522 
1 -1.18333 0.489253 0.832912 
1 -0.73826 -0.463835 0.80067 
1 -3.47456 0.78214 0.86855 
1 -2.60157 0.949588 1.51375 
1 -3.29062 1.81599 1.07619 
2 -1.41489 1.46828 0.830013 
1 -1.5606 1.03998 1.62112 
1 -0.658265 1.47818 1.30304 
1 -3.4207 -3.62408 0.828478 
2 -2.76916 1.75103 1.81855 
1 -3.56828 -2.45622 1.83967 
2 -3.85613 0.648696 -2.66113 
1 -1.67689 -3.56502 -1.19779 
1 -0.688424 1.19182 -1.55211 
1 -2.25725 -3.67855 0.701125 
1 0.288729 -3.14276 -3.01245 
2 0.00116907 -3.68362 -3.68915 
1 -0.42335 -2.15356 -3.24857 
2 0.424591 -2.18863 -3.5681 
1 0.539614 -1.89481 -2.7512 
2 0.0628565 -1.36242 -3.32405 
1 -0.33596 -1.28501 -2.55571 
2 0.54342 -1.12562 -2.32974 
1 -0.327695 0.69145 -2.39303 
1 -0.0379743 0.328727 -3.3619 
1 0.477273 -0.628876 -3.04414 
1 -0.0786246 1.39915 -3.19059 
1 -0.236267 -2.27945 -2.13633 
1 -0.213 -3.50843 -1.85605 
2 -0.154955 -2.75774 -1.39262 
1 0.662731 -3.42622 -1.22053 
1 0.138283 -1.4252 -1.61334 
1 0.0235227 -0.373522 -2.12541 
1 0.158377 -0.516564 -1.08546 
1 0.304055 0.49613 -1.44364 
2 0.374259 1.12717 -2.03261 
2 0.0996196 1.30181 -1.10155 
1 0.203728 -2.57981 -0.604463 
1 0.422262 -3.54529 -0.170498 
1 0.1437 -1.49029 -0.533261 
2 0.0884623 -1.72755 0.345802 
2 -0.307382 -0.226019 -0.378901 
1 0.13661 -0.761594 0.23409 
1 -0.382229 0.695582 -0.631544 
1 -0.207731 0.324978 0.343817 
1 0.535536 0.121714 -0.37731 
2 0.356368 0.916339 -0.0848561 
1 -0.136769 -3.50546 1.2073 
1 -0.140865 -2.37879 0.955027 
2 0.629565 -3.30643 0.812998 
2 -0.251192 -1.7928 1.60596 
1 -0.376853 -0.924261 1.6918 
1 0.40921 -1.3738 1.13606 
1 0.354837 -0.275687 1.1612 
1 -0.292671 0.501684 1.41877 
1 0.171472 1.24931 0.71174 
1 0.361614 1.52611 1.70996 
1 0.0995235 1.70242 -0.301944 
1 -0.123423 1.82143 -2.2197 
1 3.58809 -1.64338 0.126356 
2 0.566178 0.726561 1.33065 
1 1.14837 -2.60008 -3.33226 
2 0.850529 -2.71369 -2.47531 
2 1.13116 -3.47613 -3.05439 
1 1.5141 -2.09493 -2.44591 
2 1.59318 -1.8153 -3.26459 
1 1.33928 -1.1051 -2.75465 
1 0.899112 -1.45228 -3.67787 
2 1.27195 -0.17525 -2.72469 
2 1.29168 -0.657617 -3.52524 
1 0.704713 0.442214 -2.51703 
1 0.97827 0.152207 -3.51768 
1 0.850836 1.57756 -2.61798 
1 1.02591 1.23313 -3.61369 
1 0.672514 -2.44352 -1.65054 
1 1.11763 -1.97607 -0.727878 
1 1.1859 -1.46949 -1.70364 
1 1.01956 -0.487943 -1.93049 
1 1.27043 0.093602 -1.11355 
1 1.25814 0.991791 -1.76879 
1 0.680891 1.82078 -1.54767 
1 1.38225 -2.96094 -0.548784 
1 0.719193 -2.56685 0.347888 
1 1.38688 -3.457 0.400432 
1 1.05877 -0.912421 -0.710682 
1 0.946488 -1.51644 0.219702 
1 1.15147 -0.469689 0.301252 
1 0.83405 0.506061 0.530494 
1 0.935384 1.09576 -0.748585 
1 1.05537 1.56911 0.190398 
1 0.693192 -2.74883 1.50763 
1 1.30282 -1.92117 1.14937 
1 1.38928 -0.828499 1.29994 
1 1.2926 0.201226 1.41525 
1 1.28203 1.23824 1.15316 
1 1.71914 0.657216 -2.98957 
2 1.68199 -1.43683 -0.259288 
1 3.43861 -2.80551 -2.20375 
1 3.31081 1.1702 0.0160766 
1 1.73296 -2.86612 1.27583 
1 1.73681 -2.48511 -1.46924 
1 1.78142 -2.2964 0.233205 
1 1.6189 0.43012 -0.161873 
1 1.64096 -3.10664 -2.41378 
1 1.90727 -3.43344 -3.52883 
1 2.21048 -2.46926 -3.18599 
1 2.62832 -3.35975 -2.67615 
1 2.52105 -2.35811 -2.20078 
1 3.23042 -2.71993 -3.33594 
2 2.81117 -3.50247 -3.54894 
1 2.33651 -1.45444 -2.81803 
1 2.06015 -0.356904 -3.06362 
1 3.0323 -0.60204 -2.60035 
1 2.71972 0.434118 -2.64168 
1 2.53332 0.450982 -3.68918 
1 1.9028 1.52464 -2.45911 
1 3.22765 1.18766 -3.29401 
1 2.59304 -3.1861 -1.51648 
2 2.07257 -1.69275 -1.89673 
1 2.00744 -1.4262 -1.07405 
1 2.0784 -0.820215 -2.01151 
1 2.94638 -1.41748 -1.88018 
1 2.74064 -2.17 -1.14323 
1 2.9106 -0.882303 -0.907835 
2 1.69309 -0.637217 -1.26268 
1 1.83389 0.183055 -2.07356 
1 2.35969 -0.00515938 -1.16915 
2 2.86678 -0.555733 -1.71574 
1 3.25688 0.229999 -1.7647 
2 1.75133 0.818415 -1.05203 
1 1.80346 1.71928 -1.10488 
1 3.22378 1.28278 -2.21203 
1 2.40583 0.993699 -1.61861 
1 2.46725 -2.89848 -0.396173 
2 3.21641 -2.32067 -0.358658 
1 2.42462 -3.30486 0.625376 
1 2.86007 -2.35567 0.523475 
1 3.40972 -3.13562 0.0672992 
2 1.97522 -2.22901 -0.649817 
1 1.96951 -1.25554 0.551183 
1 2.57069 -1.66886 -0.217541 
1 2.01963 -0.600649 -0.348351 
2 1.68715 0.585546 0.710968 
1 2.95781 -0.685997 0.194748 
1 2.08419 -0.178688 0.682744 
2 2.45854 0.140614 -0.0745732 
1 3.23359 0.143062 -0.506561 
1 3.0048 0.345848 0.618998 
2 1.73663 1.3211 -0.286062 
1 2.46936 0.903212 -0.550172 
1 2.20343 1.27108 0.477956 
1 3.23682 -3.10023 1.25392 
1 2.60634 -2.39559 1.68618 
1 2.11271 -1.45513 1.74972 
2 2.17601 -2.02301 1.00854 
1 2.88961 -1.42824 1.00193 
1 2.51475 -0.447713 1.61873 
1 2.26662 0.648262 1.38894 
1 3.24254 0.372329 1.68426 
1 3.13859 1.34504 1.1312 
1 2.19212 1.66235 1.64059 
2 3.33272 -2.15769 1.24874 
1 2.07793 1.41376 -3.73445 
1 3.46017 1.04501 -1.10677 
1 3.32066 -1.81073 -2.82928 
1 3.48599 0.114676 -3.3597 
1 3.56735 -2.82196 -1.0273 
1 3.50532 -0.547555 1.15351 
1 3.58305 -3.70231 -1.63756 
1 3.62974 -3.6896 -3.11639 
2 -1.25895 3.48547 -1.37187 
1 -3.51686 3.60079 -2.34533 
1 -2.30759 2.09066 -2.52618 
2 -3.21277 3.09972 -3.02516 
1 -3.83875 2.48503 -3.23318 
1 -2.77102 2.4057 -3.41681 
1 -2.40563 3.11971 -2.67813 
1 -1.65296 2.46183 -3.38028 
1 -1.36814 2.61072 -2.36332 
2 -1.5955 3.26616 -3.0167 
1 -3.8709 2.05862 -1.55529 
2 -0.887571 2.02198 -1.86192 
1 -3.29123 2.58008 -2.28652 
2 -2.85612 3.22891 -1.90873 
1 -3.10687 2.69874 -1.16974 
2 -3.77798 3.01867 -1.65051 
1 -1.57763 3.65102 -2.1733 
1 -2.1423 2.86912 -1.65758 
1 -2.17112 2.34379 -0.739607 
1 -1.23205 2.54777 -1.28496 
1 -3.89735 2.17113 0.200975 
1 -2.78499 2.23991 0.154215 
1 -1.76381 1.89491 0.136248 
1 -3.84294 3.29265 -0.689268 
2 -3.91453 2.42112 -0.704769 
1 -3.37307 3.09589 0.235554 
1 -2.59065 3.32138 -0.438729 
1 -1.49498 3.2284 -0.543369 
1 -1.93307 2.93909 0.395848 
1 -0.853671 2.40061 -0.213995 
1 -0.822912 3.30255 0.333694 
1 -2.1118 1.89053 1.18911 
1 -1.13034 2.34002 0.873959 
1 -2.7608 2.7754 1.09405 
1 -3.27527 3.51577 1.73517 
1 -3.86931 2.78698 1.11633 
2 -1.89429 2.75463 1.26232 
1 -1.16037 3.05194 1.62864 
1 -2.21208 3.4687 1.72953 
1 -2.274 3.28831 -3.72223 
1 -0.742308 3.45301 -2.8357 
1 -0.53644 2.41046 -3.03978 
1 0.22864 3.26715 -3.2041 
1 -0.3975 2.86412 -1.99157 
1 -0.281659 2.1364 -1.17287 
1 -0.483385 3.28549 -0.979361 
1 0.130709 2.79213 -0.305166 
1 -0.0790788 2.26052 0.643153 
1 0.21157 3.29881 0.656487 
2 -0.486434 3.0002 1.08759 
1 -0.336115 2.40605 1.70047 
1 0.387461 3.71864 -2.24695 
1 1.2816 3.67916 -1.57165 
1 0.698017 3.73276 1.48716 
2 2.74033 1.85389 0.0625699 
2 2.28631 3.68956 1.4388 
1 0.52136 2.28037 -3.42317 
1 1.53654 2.33268 -3.04846 
1 0.579555 2.62162 -2.40677 
1 1.33399 3.34342 -2.71138 
1 1.51865 2.40946 -1.93339 
1 0.497476 2.91348 -1.3763 
1 0.998664 2.26507 -0.652983 
1 0.963292 3.43437 -0.550989 
1 0.993683 2.69573 0.3112 
2 0.729989 1.91557 0.938365 
1 1.5864 2.21466 0.984009 
1 1.54663 3.31001 1.02499 
1 0.655106 2.6545 1.39206 
1 2.64065 3.69893 -0.713212 
1 1.87361 3.3667 -0.0395686 
1 2.66158 2.07314 -3.00198 
2 2.20444 2.57442 -2.47671 
1 3.10053 2.91243 -2.37034 
1 2.31762 3.16022 -3.13811 
1 1.85418 2.87353 -0.994054 
1 2.89623 2.81615 -1.26008 
1 2.2051 3.29146 -1.96545 
1 2.58476 2.05607 -1.8839 
1 1.92829 2.17283 -0.0917728 
1 2.84788 1.86649 -0.793583 
1 2.81165 2.77844 -0.154016 
2 2.0743 2.78301 0.53827 
1 2.67135 2.25468 0.836825 
1 2.71446 3.35608 0.756847 
1 2.17148 2.80706 1.67661 
1 3.0805 3.42651 1.80671 
2 3.3965 2.10996 -2.4447 
2 3.30998 3.50388 0.0920331 
2 1.2759 3.09144 1.8424 
1 -3.41905 1.66521 3.69022 
1 -2.52928 -2.29835 2.08313 
1 -0.932006 -3.48364 1.99671 
2 -1.06592 -0.994132 2.24355 
1 -3.50919 1.15558 1.97385 
1 -3.3831 -3.36298 2.48361 
2 -3.16618 -2.4995 2.68709 
1 -2.99566 -2.98384 3.41583 
2 -2.36654 -3.59329 3.3264 
1 -2.30776 -3.19184 2.53378 
1 -1.94608 -2.82782 3.57364 
1 -1.28856 -2.66378 2.55984 
1 -0.921084 -3.07434 3.65568 
1 -3.47658 -2.03837 3.63189 
1 -2.46413 -2.05366 3.10579 
1 -3.23873 -1.63034 2.47618 
1 -2.85491 -1.12268 3.42261 
2 -2.41649 -1.29556 2.63721 
1 -1.1456 -2.02641 3.40579 
1 -1.68061 -1.68893 2.34138 
1 -1.73539 -1.1187 3.23968 
2 -0.835152 -1.19364 3.18976 
1 -0.622571 -1.7567 2.4451 
1 -2.91878 -0.589546 2.45018 
1 -3.55381 -0.23837 3.19977 
2 -2.94092 0.362834 3.4861 
1 -2.86847 0.515967 2.59819 
2 -3.71847 0.326431 2.41612 
1 -2.28073 -0.169568 3.21628 
1 -1.88622 -0.656647 2.28321 
1 -1.01362 -0.321824 2.83656 
1 -1.83651 0.397348 2.389 
1 -1.4387 0.717745 3.28543 
2 -0.715261 0.232107 3.52089 
1 -0.72498 0.628141 2.39402 
2 -3.08839 1.35586 2.75206 
1 -2.53767 1.1624 3.40899 
1 -3.72376 0.815214 3.17271 
1 -2.20923 1.45463 2.43269 
2 -1.34911 1.21802 2.47516 
1 -1.36182 1.77631 3.15771 
1 -3.8135 1.8324 2.70121 
1 -1.45663 -3.67777 2.92652 
1 -0.322588 -0.643461 3.71207 
1 -0.26941 -2.65964 1.98145 
2 -0.325514 -0.146223 2.1891 
1 0.476622 0.302105 2.09427 
1 -0.350722 -3.60536 2.85723 
2 -0.00812227 -2.3157 2.73885 
1 0.056794 -2.82389 3.45345 
1 0.563848 -3.09443 2.51702 
1 0.459538 -1.85103 2.10828 
1 -0.0775955 -1.68208 3.34907 
1 -0.144566 -0.859539 2.69573 
2 0.435458 0.717336 3.47211 
1 -0.0120694 0.134439 3.0096 
1 -0.405955 1.05856 3.34899 
1 -0.480802 1.65836 2.45539 
2 0.323475 1.6337 3.48769 
2 0.576476 -1.36309 2.83317 
1 0.496973 1.23963 2.73426 
1 2.83515 -0.600111 3.65402 
2 1.23114 -1.46334 1.90098 
2 1.32197 -3.12584 2.06133 
1 0.717532 -0.769688 2.10949 
1 1.39852 1.00515 2.14796 
1 0.866027 -3.45357 3.55002 
1 0.813166 -2.19295 3.04387 
1 1.61843 -3.10743 2.89961 
1 1.51436 -2.27161 2.19623 
1 1.46123 -1.28905 2.73564 
1 0.755131 -0.591532 3.22208 
1 1.07452 0.40703 2.95805 
2 1.39028 1.25096 3.01576 
2 1.66686 0.605536 3.61269 
1 1.68761 -0.217117 2.28612 
1 3.26631 -1.55822 1.99088 
2 2.45572 0.288674 2.15699 
2 2.26644 -2.76508 2.41235 
1 2.57915 -2.81915 3.28002 
1 3.01781 -3.21796 2.31476 
1 1.77798 -2.16026 3.38526 
1 1.94241 -1.18269 3.70165 
1 2.48561 -0.839034 2.65007 
1 2.48094 -1.91333 2.64842 
1 2.82606 -1.78967 3.68644 
1 1.81736 -0.228075 3.33814 
1 2.09913 0.71882 2.8562 
1 2.9649 0.149851 2.84457 
1 2.07567 1.77547 2.70561 
1 2.90037 1.14585 2.30173 
2 2.87465 1.08617 3.22228 
1 3.47699 -3.34637 3.33642 
1 3.43384 -2.34621 2.7928 
1 3.45995 -1.2302 3.03764 
1 3.47939 -0.523513 2.22582 
1 2.05268 -3.59761 2.0343 
1 -3.2843 2.41726 1.96691 
1 -1.33705 2.01566 1.97491 
1 -2.23824 2.48231 2.05995 
2 -1.64289 3.1683 2.33683 
2 -2.17246 1.98322 3.51434 
1 -2.8346 2.19585 2.96519 
1 -3.80413 3.00291 2.63458 
1 -2.73311 3.22096 2.67305 
2 -3.69205 2.43882 3.34365 
1 -3.34889 3.23456 3.56884 
1 -1.85532 2.67413 3.03359 
1 -1.13418 3.28923 3.65146 
1 -0.868444 2.74887 2.63926 
1 -0.1893 3.40783 2.04582 
1 -0.371515 2.13458 3.41997 
1 -0.0389662 3.1419 3.22808 
1 0.363116 2.41337 2.51976 
1 3.12259 2.17611 1.85324 
1 1.26496 2.05403 2.01195 
1 1.11322 2.05326 3.17883 
1 0.766358 3.46405 2.53103 
1 1.10984 3.09923 3.575 
1 2.9745 1.96952 3.44701 
1 1.59513 2.85733 2.61243 
1 2.06465 2.51015 3.51778 
2 2.97561 3.53091 2.70177 
1 2.64384 2.70205 2.62331 
1 3.05275 3.06371 3.54105 
1 2.16537 3.5834 3.14732 
