ITEM: TIMESTEP
142
ITEM: NUMBER OF ATOMS
500
ITEM: BOX BOUNDS xy xz yz pp pp pp
-3.7345 4.10795 0.37345
-3.7345 3.7345 0
-3.7345 3.7345 0
ITEM: ATOMS type x y z 
1 -3.08632 -2.60409 -2.95617 
1 -2.59848 -3.5121 -3.2234 
2 -2.4893 -2.32728 -3.55554 
1 -2.05888 -2.63017 -2.78762 
2 -1.42787 -2.97653 -2.31444 
2 -1.24605 -2.58669 -3.25644 
1 -1.54135 -3.4907 -3.04515 
1 -0.652949 -2.99849 -2.73524 
1 0.409454 -3.03729 -2.95874 
2 -0.0470925 -3.64313 -3.67579 
1 1.36956 -2.64443 -3.33516 
2 1.12598 -2.74963 -2.48639 
2 1.22377 -3.50131 -3.05542 
1 -2.6709 -1.56176 -3.03628 
2 -3.43337 -1.06028 -2.45115 
1 -3.44249 -0.937848 -3.35341 
1 -1.06063 -2.09296 -2.50365 
1 -1.72823 -1.85838 -3.43271 
1 -1.97687 -1.71552 -2.26072 
1 -1.78043 -0.848591 -3.02141 
1 -1.08595 -1.03437 -2.23681 
1 -0.803734 -1.29814 -3.32626 
1 -0.206333 -2.14447 -3.19567 
2 0.623053 -2.25285 -3.50948 
1 0.799843 -1.92059 -2.70523 
2 0.314723 -1.39298 -3.325 
1 -0.0582886 -1.2863 -2.54402 
1 1.82149 -2.1537 -2.48096 
2 1.86668 -1.86065 -3.28994 
2 0.852653 -1.11966 -2.31352 
1 1.63261 -1.15719 -2.75905 
1 1.14226 -1.51506 -3.6608 
1 -2.5811 -0.27937 -3.37848 
1 -3.1639 -0.15422 -2.51104 
1 -2.76688 0.753733 -3.1776 
2 -3.50047 0.625282 -2.63941 
1 -1.06871 -0.317145 -3.64947 
2 -1.27036 -0.0688792 -2.81252 
1 -2.03959 0.00874173 -2.38937 
1 -1.75966 0.416417 -3.35641 
1 -0.65358 0.637307 -3.22702 
1 -0.445182 -0.320979 -2.78626 
1 0.0538176 0.622272 -2.4019 
1 0.321331 0.264635 -3.35762 
1 0.77437 -0.672132 -3.05989 
2 1.53689 -0.269848 -2.67246 
2 1.57951 -0.70867 -3.51578 
1 1.09998 0.434725 -2.45659 
1 1.35088 0.123503 -3.46551 
1 -2.83496 1.66785 -2.6669 
2 -2.19952 1.50511 -3.25606 
1 -1.94789 1.04779 -2.49554 
1 -0.589282 1.54288 -2.61064 
1 -1.33793 1.39247 -3.36823 
2 -0.443758 1.62635 -3.50516 
1 0.372687 1.36219 -3.1532 
1 1.33829 1.50847 -2.61256 
1 1.40585 1.2216 -3.64603 
2 -2.74782 -2.87222 -2.18146 
1 -2.96748 -2.5851 -1.36715 
1 -2.85946 -3.6383 -1.2583 
1 -2.14865 -3.49651 -2.13932 
1 -1.62883 -3.59539 -1.20786 
1 -1.94395 -2.59396 -1.66699 
1 -0.897632 -2.82949 -1.63997 
2 -0.761009 -3.70065 -1.35175 
1 -0.0507846 -2.31793 -2.15191 
1 -0.1007 -3.44329 -1.94528 
2 0.0992037 -2.75634 -1.42046 
1 0.708448 -3.36965 -1.20413 
1 0.921124 -3.62256 -2.215 
1 1.73725 -3.63251 -1.43972 
1 0.898622 -2.44468 -1.70376 
1 -3.13884 -1.81814 -2.08137 
1 -2.54181 -0.896848 -2.17208 
1 -3.51421 -1.69706 -1.03598 
1 -2.42752 -1.63149 -1.27033 
1 -1.30634 -1.76749 -1.40845 
2 -1.79036 -1.07361 -1.64401 
1 -1.4656 -0.980501 -0.71917 
2 -0.547914 -1.65597 -1.88906 
1 -0.33235 -2.05001 -1.12878 
1 -0.532426 -0.982353 -1.31104 
1 0.41854 -1.44638 -1.61823 
1 1.38227 -1.90502 -0.742431 
1 1.46791 -1.521 -1.75322 
2 -2.68139 -0.0692303 -1.78274 
1 -3.395 -0.699175 -1.60881 
1 -2.35002 -0.589078 -1.16438 
1 -2.92052 0.244828 -1.00665 
1 -1.37867 -0.26712 -1.55865 
2 -0.860869 -0.292154 -0.842356 
1 -1.03601 0.567999 -2.1929 
1 -1.97559 0.611173 -1.46729 
1 0.362846 -0.378834 -2.11957 
1 0.418392 -0.504458 -1.06178 
1 0.729816 0.532624 -1.44913 
1 -0.334867 0.0954739 -1.48979 
1 1.34284 -0.513157 -1.84829 
1 1.66073 0.161874 -1.11441 
1 -2.88367 0.784706 -1.99186 
2 -2.62721 1.0858 -1.14789 
1 -2.31322 1.73819 -1.69114 
1 -1.75784 1.50144 -0.7887 
1 -1.00782 0.71237 -0.998675 
1 -1.22818 1.57705 -1.74977 
2 0.722746 1.15545 -2.05716 
1 -0.13823 1.21413 -1.58768 
2 0.579067 1.36263 -1.06182 
1 1.774 1.02098 -1.74791 
1 1.16793 1.81883 -1.57416 
1 -3.06971 -2.34626 -0.31441 
1 -2.23207 -2.91316 -0.66825 
1 -3.01053 -3.37664 -0.0845089 
1 -3.31536 -2.60219 0.71813 
1 -2.27839 -2.70774 0.474418 
1 -1.20224 -2.5149 -0.605257 
1 -1.13942 -2.51587 0.570509 
1 -1.57053 -3.34968 0.0298887 
1 0.502316 -2.49116 -0.665084 
1 -0.363831 -3.13326 -0.779808 
1 0.487992 -3.40817 -0.132548 
1 -0.469831 -3.23199 0.270873 
1 1.54692 -2.95332 -0.565541 
1 0.845088 -2.3931 0.345899 
1 1.3914 -3.25259 0.499195 
1 -3.25511 -0.759562 -0.559425 
2 -2.81342 -1.4946 -0.431438 
1 -2.63845 -1.66485 0.459761 
2 -3.16809 -0.873428 0.327027 
1 -2.01571 -1.89724 -0.350402 
2 -0.897051 -1.6348 -0.590778 
1 -1.24455 -1.4881 0.254845 
1 -0.324822 -2.12037 -0.0637525 
1 -0.48311 -0.88412 -0.246424 
1 0.412716 -1.44845 -0.544875 
2 0.385961 -1.65679 0.321033 
1 -0.317448 -1.46679 0.783661 
1 1.36713 -0.841322 -0.734749 
2 1.9564 -1.38564 -0.279651 
1 1.24965 -1.41291 0.237264 
1 -2.30832 -0.802273 -0.0742264 
1 -3.16688 -0.0101905 0.162476 
1 -2.18705 0.229861 0.481856 
1 -0.698965 0.162123 -0.110141 
1 -1.40021 -0.446335 0.440914 
1 -1.74245 0.0509515 -0.525855 
2 0.0653276 -0.140498 -0.347291 
1 0.468289 -0.711995 0.198639 
1 0.0623624 0.722324 -0.658389 
1 0.244449 0.351925 0.403684 
1 1.50776 -0.379219 0.30975 
1 0.912691 0.154052 -0.398802 
1 1.28041 0.639069 0.448322 
1 -2.48454 0.891042 -0.258092 
1 -2.84705 1.78623 -0.683405 
2 -2.75227 1.59357 0.19227 
1 -0.645794 1.72099 -0.855139 
1 -2.00325 1.47002 0.707108 
1 -1.40414 0.889658 0.0861652 
2 0.699121 0.970872 -0.085678 
1 0.53175 1.7922 -0.270776 
1 -0.330109 1.21437 0.171076 
1 1.3727 1.13736 -0.696423 
1 1.51082 1.69352 0.246116 
1 -2.66707 -3.12895 1.45385 
2 -3.50386 -3.40765 1.66334 
1 -3.38624 -3.70274 0.849832 
1 -1.6011 -2.86252 1.52141 
2 -0.745615 -2.94367 1.28141 
1 -1.20313 -3.68104 0.964144 
1 -0.0939218 -3.53115 1.23918 
1 -0.0515162 -2.47069 0.920927 
2 0.548161 -3.13902 0.763879 
1 0.831665 -2.60482 1.4774 
2 -2.66367 -2.23943 1.18139 
1 -3.24921 -1.59152 1.28799 
1 -2.25789 -1.23462 1.70786 
2 -3.04438 -0.838568 1.69785 
1 -0.862459 -2.06542 1.51037 
1 -1.82779 -1.92781 1.08156 
2 -1.91825 -1.13374 0.726437 
1 -1.20543 -1.05791 1.3436 
2 -0.00935672 -1.8772 1.60456 
1 -0.0645785 -0.97842 1.6982 
1 0.705007 -1.54515 1.1734 
1 1.68153 -2.01978 1.13641 
1 1.61393 -0.914469 1.24996 
1 -2.59577 -0.651561 0.937796 
1 -2.88197 0.0548145 1.67365 
1 -0.764511 -0.174633 1.78461 
1 -1.77912 -0.0758232 1.41045 
2 -1.66125 0.7204 0.974658 
1 -0.826848 0.517625 0.913051 
1 0.708643 -0.359664 1.16373 
1 -0.384014 -0.429 0.803658 
1 0.086764 0.402683 1.46193 
2 0.92559 0.601532 1.24221 
1 1.65924 0.144093 1.3299 
1 -3.04326 0.751526 0.876226 
1 -2.25151 0.932363 1.6031 
1 -2.96568 1.78378 1.02068 
2 -0.929057 1.40511 0.780888 
1 -1.26358 1.22677 1.57424 
1 -0.25448 1.37308 1.42964 
1 0.589178 1.33839 0.756365 
1 0.789495 1.27645 1.78609 
1 1.71268 1.23839 1.18636 
1 2.05171 0.711064 -2.94371 
1 1.87813 -3.03455 1.49707 
2 -1.94853 1.8164 1.54183 
1 0.971752 -3.62967 1.57714 
1 1.94477 -2.46891 -1.4857 
1 1.95464 -2.22196 0.133506 
1 2.07516 0.447785 -0.183101 
1 1.90571 -3.19074 -2.43162 
1 2.01941 -3.48641 -3.45596 
1 2.4731 -2.52978 -3.2436 
1 2.95099 -3.35872 -2.6747 
1 2.85479 -2.33148 -2.28655 
1 3.48656 -2.77976 -3.49053 
2 2.93415 -3.53293 -3.5848 
1 2.64531 -1.46716 -2.8785 
1 2.31721 -0.356308 -3.05246 
1 3.30323 -0.559549 -2.62373 
1 3.06943 0.508268 -2.5913 
1 2.85851 0.426166 -3.61984 
1 2.48196 1.53043 -2.45049 
1 2.48064 1.4074 -3.70285 
1 3.66939 1.16607 -3.28068 
1 2.71019 -3.13541 -1.63093 
2 2.37677 -1.74314 -1.89151 
1 2.27554 -1.38112 -1.10439 
1 2.38891 -0.871753 -2.0337 
1 3.30184 -1.39854 -1.93701 
1 2.97877 -2.15116 -1.21651 
1 3.22133 -0.885658 -0.948298 
2 2.05071 -0.574125 -1.2814 
1 2.18397 0.134185 -2.07851 
1 2.71374 0.0382042 -1.16022 
2 3.16847 -0.51826 -1.74268 
1 3.65133 0.244453 -1.75238 
2 2.25261 0.811794 -1.00336 
1 2.32198 1.70991 -1.05757 
1 3.6982 1.3341 -2.21477 
1 2.89179 1.00699 -1.59097 
1 2.65492 -2.80704 -0.415499 
2 3.46026 -2.21713 -0.440693 
1 2.43519 -3.07891 0.628039 
1 3.19386 -2.36101 0.412349 
1 3.36134 -3.40196 0.110294 
2 2.21314 -2.16232 -0.714294 
1 2.27848 -1.23443 0.529932 
1 2.82291 -1.64621 -0.257784 
1 2.34573 -0.586436 -0.36903 
2 2.10389 0.576904 0.697628 
1 3.31682 -0.649707 0.127734 
1 2.49096 -0.18687 0.667739 
2 2.85944 0.109549 -0.126704 
1 3.59045 0.156623 -0.597471 
1 3.38015 0.396397 0.537687 
2 2.14328 1.33372 -0.239123 
1 2.95141 0.993204 -0.454407 
2 3.27477 1.68906 0.097949 
1 2.59162 1.29279 0.538272 
1 3.3147 -3.11475 1.19198 
1 2.7311 -2.37759 1.60263 
2 2.56399 -3.57888 1.40831 
1 2.33131 -1.42912 1.79267 
2 3.52833 -2.20384 1.2262 
2 2.50565 -2.04146 0.81982 
1 3.18638 -1.43455 0.988829 
1 2.84943 -0.47104 1.63631 
1 2.61756 0.633924 1.42595 
1 3.59026 0.360465 1.6579 
1 3.52429 1.29581 1.09028 
1 2.68018 1.67692 1.67251 
1 3.92313 1.09502 -1.1486 
1 3.95274 1.13285 -0.0373997 
1 3.64186 -1.83885 -2.89333 
1 3.82608 0.131389 -3.39564 
1 3.76773 -2.79555 -2.11482 
1 3.6357 -2.96848 -0.849433 
1 3.55689 -3.70593 -1.60924 
1 3.84172 -1.57303 0.0812358 
1 3.83221 -0.534031 1.07491 
1 -3.36177 3.64816 -3.21191 
1 -1.7099 2.04889 -2.60633 
1 2.02188 2.2287 -3.09932 
2 -2.58861 3.14914 -3.01832 
1 -3.22353 2.52018 -3.19913 
1 -2.19196 2.41218 -3.44291 
1 -2.77955 3.70917 -2.32372 
1 -1.73985 3.09965 -2.7018 
1 -1.01782 2.3767 -3.47122 
1 -0.771601 2.58402 -2.40617 
2 -0.915511 3.15711 -3.08116 
1 0.0148346 2.44069 -3.07982 
1 0.931971 3.33945 -3.11334 
1 -0.0892185 3.49196 -2.94035 
1 0.994469 2.29634 -3.46233 
1 1.18949 2.56416 -2.44196 
1 2.0193 3.2402 -2.7135 
1 -3.30324 2.11279 -1.57913 
1 0.346001 1.90839 -2.23526 
2 -0.419511 2.04004 -1.77327 
1 -2.64607 2.63387 -2.27597 
2 -2.19607 3.25245 -1.83492 
1 -2.49644 2.74202 -1.08802 
2 -3.12776 3.01297 -1.63291 
1 -0.772202 3.62628 -2.13417 
1 -1.60729 2.65382 -1.71925 
1 -1.33246 2.56609 -0.702264 
1 -0.575727 2.84566 -1.38794 
1 0.261718 2.96009 -2.08262 
1 0.289618 2.24711 -1.20829 
1 0.315931 3.35472 -1.06215 
1 2.07991 2.39809 -1.88806 
1 1.24327 2.98815 -1.46063 
1 -3.40874 2.19852 0.114936 
1 -2.11111 2.21439 -0.0376117 
1 -1.11743 1.90773 0.0890913 
1 1.50779 2.27419 -0.669555 
1 -3.27249 3.38686 -0.614373 
2 -3.32992 2.50521 -0.731725 
1 -1.91383 3.62519 0.746624 
1 -2.67689 3.02556 0.168703 
1 -1.88059 3.4145 -0.434548 
1 -0.589741 3.47384 -0.485625 
1 -1.17225 2.95833 0.328576 
1 -0.263113 2.51797 -0.302249 
1 0.750976 2.89536 -0.2487 
1 -0.0365098 3.19647 0.490712 
1 0.797029 2.38489 0.670269 
1 1.02549 3.42702 0.676829 
1 1.62555 3.45779 -0.558958 
1 1.73671 2.80273 0.244968 
1 -1.22337 2.17633 1.10683 
1 -0.244321 2.14798 0.710315 
2 1.18904 1.91915 1.28583 
1 -2.17974 2.57201 1.00117 
1 -2.6001 3.28623 1.71263 
1 -3.31479 2.76524 1.02277 
2 -1.36518 3.043 1.2025 
1 -0.473098 2.92631 1.47728 
1 -1.54884 3.6428 1.81466 
2 0.436799 3.02831 1.22587 
1 0.340548 2.25759 1.65226 
1 2.07431 2.24987 1.0402 
1 2.1952 3.41931 1.05224 
1 1.29514 2.78086 1.54609 
1 3.16643 3.70825 -0.806655 
1 2.5196 3.56347 0.0150834 
1 3.23442 2.12646 -2.99586 
2 2.65154 2.59456 -2.54364 
1 3.78713 2.99813 -2.35597 
1 3.01919 3.17742 -3.13474 
1 2.45133 2.84991 -0.938911 
1 3.52398 2.85555 -1.24929 
1 2.83962 3.28529 -1.98083 
1 3.13068 2.16331 -1.91016 
1 2.49843 2.14249 -0.0808335 
1 3.40594 1.92995 -0.751734 
1 3.30164 2.85798 -0.165445 
2 2.59142 2.82405 0.510686 
1 3.70339 2.1254 1.76167 
1 3.17766 2.25439 0.784907 
1 3.2693 3.36372 0.799822 
1 2.79303 2.81227 1.65396 
1 3.7344 3.38832 1.77214 
2 3.95022 2.15802 -2.43455 
2 3.97064 3.23488 0.276684 
1 -3.41934 -2.51802 1.84539 
1 -2.34198 -2.25744 1.9919 
1 -0.868966 -3.58838 1.96898 
1 -0.179558 -2.70969 1.9729 
2 1.45755 -3.28219 2.21241 
2 -0.804517 -1.00488 2.19864 
2 1.39821 -1.58066 1.85161 
1 1.02399 -0.82894 2.11388 
2 0.0418336 -0.187544 2.19107 
1 0.897664 0.233498 2.09273 
1 -3.17641 1.14694 1.9861 
1 1.81197 0.896709 2.14922 
1 -3.19935 -3.40736 2.46207 
2 -2.92755 -2.5317 2.62036 
1 -2.98011 -2.93552 3.42494 
2 -2.41426 -3.57712 3.34265 
1 -2.19647 -3.0907 2.6008 
1 -1.87266 -2.89124 3.61504 
1 -1.16022 -2.70808 2.52398 
1 -0.861542 -3.19466 3.67359 
1 -0.290446 -3.55373 2.85978 
2 -0.340079 -2.54557 2.83012 
1 0.100015 -2.80141 3.51052 
1 0.647266 -3.09004 2.48348 
1 0.869939 -3.45486 3.57542 
1 0.980038 -2.31946 3.13035 
1 1.73056 -3.17943 3.01161 
1 1.63024 -2.3498 2.25411 
1 -3.24468 -1.93836 3.63013 
1 -2.2521 -2.07489 3.06821 
1 -3.01627 -1.6235 2.44021 
1 -2.55439 -1.1034 3.40242 
2 -2.16482 -1.30149 2.61784 
1 -0.903824 -2.12586 3.40721 
1 -1.46794 -1.69188 2.28913 
1 -1.46056 -1.17014 3.23448 
2 -0.566581 -1.23381 3.19353 
1 0.614989 -1.86865 2.23097 
1 -0.435117 -1.76236 2.44519 
1 0.136221 -1.74333 3.35627 
1 0.176135 -0.919884 2.70959 
2 0.870664 -1.42857 2.95012 
1 1.72052 -1.35745 2.70309 
1 -2.62371 -0.589651 2.44393 
1 -3.18678 -0.201844 3.19587 
2 -2.59116 0.412394 3.49499 
1 -2.53095 0.527032 2.59696 
2 -3.39592 0.320352 2.42057 
1 -1.95069 -0.139435 3.19964 
1 -1.58364 -0.632666 2.31679 
1 -0.675841 -0.364458 2.84266 
1 -1.49478 0.470051 2.30197 
1 -1.08026 0.617773 3.2575 
1 -0.0346642 -0.680546 3.70838 
2 -0.361415 0.170858 3.52752 
1 -0.361337 0.609416 2.41091 
2 0.777178 0.699162 3.49683 
1 0.345636 0.104404 3.00581 
1 1.08929 -0.61452 3.23001 
1 2.0046 -0.21554 2.27921 
1 1.42989 0.401324 3.00418 
1 -2.92559 1.66579 3.70024 
2 -2.64775 1.40186 2.74803 
1 -2.07465 1.14818 3.37511 
1 -3.36631 0.862928 3.15558 
1 -1.7964 1.56942 2.41952 
2 -0.960441 1.22302 2.40378 
1 -0.897728 1.66525 3.1528 
1 -0.0403857 1.0355 3.39126 
1 0.0134393 1.61887 2.48025 
1 0.962179 1.28528 2.81242 
2 0.669863 1.6326 3.53061 
2 1.82756 1.24399 3.00273 
2 2.02241 0.600811 3.65265 
1 3.10341 -0.633575 3.72519 
1 3.45007 -1.58053 2.02225 
2 2.83602 0.256235 2.1941 
2 2.35386 -2.8414 2.35304 
1 2.73862 -2.91451 3.21815 
1 3.18805 -3.15155 2.25021 
1 1.98172 -2.19575 3.36396 
1 2.19859 -1.22118 3.6681 
1 2.77141 -0.888819 2.68465 
1 2.67814 -2.02174 2.61147 
1 3.07766 -1.82818 3.62039 
1 2.15027 -0.244979 3.35108 
1 2.4764 0.681319 2.89915 
1 3.32127 0.104426 2.91409 
1 2.55375 1.74086 2.73698 
1 3.31711 1.10119 2.38103 
2 3.22932 1.00861 3.28235 
1 2.25653 -3.72444 2.21807 
1 3.56298 -3.54458 3.22525 
1 3.67967 -2.40125 2.85224 
1 3.75163 -1.17103 3.06292 
1 3.78489 -0.535056 2.20241 
2 1.96352 3.25913 1.88895 
1 1.6706 1.93815 2.07103 
1 -1.05116 3.7141 2.87053 
1 -2.6602 2.16969 1.95071 
1 -0.824327 2.07021 2.09663 
1 -1.69267 2.60374 1.95563 
2 -0.976803 3.10143 2.20396 
1 0.525154 3.32679 2.06475 
1 -3.34264 1.89952 2.70902 
2 -1.66201 1.96434 3.4723 
1 0.0309038 2.17579 3.38838 
1 1.65979 2.07508 3.22029 
1 -2.33636 2.27188 2.98003 
1 -3.17329 2.98864 2.61491 
1 -2.07572 3.29438 2.68689 
2 -3.10478 2.45814 3.37243 
1 -2.68671 3.24707 3.55487 
1 -1.26711 2.61748 2.94159 
1 -0.438275 3.19368 3.58397 
1 -1.56734 3.27099 3.71742 
1 0.628524 3.12272 3.33617 
1 -0.242122 2.83357 2.59424 
1 0.848245 2.39225 2.59549 
1 1.4583 3.43853 2.61853 
1 1.77387 3.10053 3.65519 
1 3.44221 1.86224 3.45411 
1 2.21878 2.76233 2.57586 
1 2.64163 2.49316 3.54833 
2 3.47789 3.47391 2.60506 
1 3.26562 2.59649 2.60267 
1 3.66951 2.94002 3.52291 
1 2.84155 3.49179 3.21568 
