ITEM: TIMESTEP
1589
ITEM: NUMBER OF ATOMS
500
ITEM: BOX BOUNDS xy xz yz pp pp pp
-4.4814 3.7345 -0.7469
-3.7345 3.7345 0
-3.7345 3.7345 0
ITEM: ATOMS type x y z 
1 -3.27307 -2.63999 -2.90411 
1 -2.65779 -3.51493 -3.22804 
2 -2.73113 -2.32107 -3.52614 
1 -2.22106 -2.61176 -2.81245 
2 -1.56537 -2.95613 -2.32431 
2 -1.40738 -2.55566 -3.26341 
1 -1.61668 -3.46738 -3.0504 
1 -0.785186 -2.99798 -2.72652 
1 -3.03035 -1.57755 -3.00142 
2 -3.82595 -1.05265 -2.45503 
1 -3.88022 -0.972898 -3.3692 
1 -1.3115 -2.08895 -2.49418 
1 -2.04454 -1.81939 -3.4323 
1 -2.27885 -1.70288 -2.26224 
1 -2.21451 -0.829885 -3.00017 
1 -1.47658 -1.02588 -2.23005 
1 -1.17123 -1.28842 -3.32014 
1 -3.09975 -0.300468 -3.38002 
1 -3.67151 -0.143693 -2.49967 
1 -3.39209 0.744251 -3.18295 
1 -1.58223 -0.313718 -3.65708 
2 -1.79202 -0.0351221 -2.81265 
1 -2.5754 0.0219437 -2.38954 
1 -2.3571 0.408755 -3.35668 
1 -1.29281 0.653615 -3.22711 
1 -0.950252 -0.321988 -2.81366 
1 -3.64623 1.63969 -2.67561 
2 -2.9708 1.52481 -3.24654 
1 -2.64421 1.05847 -2.47684 
1 -1.35683 1.55544 -2.60839 
1 -2.09377 1.4019 -3.35043 
2 -1.21885 1.54985 -3.51487 
2 -2.81605 -2.37934 -2.19174 
1 -3.13266 -2.61804 -1.40788 
1 -2.87252 -3.66728 -1.29249 
1 -2.24155 -3.45793 -2.16804 
1 -2.09668 -2.58283 -1.66661 
1 -1.04065 -2.84906 -1.65247 
1 -3.47791 -1.7746 -2.02465 
1 -2.95346 -0.891598 -2.16746 
1 -3.81109 -1.72842 -0.995515 
1 -2.73107 -1.65341 -1.2658 
1 -1.59993 -1.74736 -1.40427 
2 -2.18667 -1.073 -1.63394 
1 -1.88919 -0.97957 -0.725152 
2 -0.853239 -1.64707 -1.88094 
1 -0.599032 -2.04911 -1.12791 
1 -0.932521 -0.964776 -1.31662 
2 -3.19929 -0.0600603 -1.76849 
1 -3.83312 -0.706205 -1.60092 
1 -2.82797 -0.602464 -1.15824 
1 -3.54319 0.213723 -1.00035 
1 -1.89618 -0.259164 -1.56105 
2 -1.3687 -0.301211 -0.851371 
1 -1.6677 0.601357 -2.17076 
1 -2.63247 0.587196 -1.45194 
1 -0.894526 0.112731 -1.46304 
1 -3.54906 0.789434 -1.97032 
2 -3.33518 1.06994 -1.12674 
1 -3.13084 1.74785 -1.67818 
1 -2.53937 1.46947 -0.786038 
1 -1.67098 0.698823 -1.00297 
1 -2.01539 1.64265 -1.74783 
1 -3.25678 -2.38716 -0.329762 
1 -2.36533 -2.94081 -0.693386 
1 -3.03019 -3.40604 -0.0595338 
1 -3.51601 -2.60497 0.697466 
1 -2.43508 -2.73191 0.498216 
1 -1.39666 -2.54978 -0.648653 
1 -1.35303 -2.50622 0.577342 
1 -1.64749 -3.35116 0.0219978 
1 -0.485776 -3.15423 -0.7972 
1 -0.574471 -3.1829 0.258285 
1 -3.67758 -0.789488 -0.524435 
2 -3.1235 -1.52486 -0.427935 
1 -2.89336 -1.72225 0.455466 
2 -3.75876 -0.831397 0.365023 
1 -2.25381 -1.92879 -0.368436 
2 -1.26376 -1.65528 -0.567756 
1 -1.61756 -1.45724 0.296 
1 -0.613628 -2.12177 -0.0750112 
1 -0.924932 -0.886875 -0.256309 
1 -0.630397 -1.43606 0.730171 
1 -2.72435 -0.835103 -0.0602355 
1 -3.76834 0.0156824 0.140749 
1 -2.81613 0.207978 0.502126 
1 -1.30007 0.157408 -0.121342 
1 -1.9223 -0.42366 0.481051 
1 -2.33023 0.0439456 -0.51124 
1 -3.19834 0.874085 -0.239469 
1 -3.65817 1.77765 -0.676773 
2 -3.56035 1.56488 0.203144 
1 -1.44474 1.70028 -0.837826 
1 -2.79828 1.42211 0.710826 
1 -2.10305 0.870942 0.100911 
1 -1.08853 1.22563 0.18551 
1 -2.72826 -3.14342 1.48425 
2 -3.5279 -3.4298 1.68889 
1 -1.69582 -2.85093 1.57858 
2 -0.850457 -2.91427 1.24944 
1 -1.22306 -3.65746 0.958828 
2 -2.89878 -2.2808 1.1963 
1 -3.54781 -1.62852 1.25838 
1 -2.64047 -1.23135 1.69807 
2 -3.50328 -0.88347 1.71169 
1 -1.09065 -2.02303 1.48342 
1 -2.09719 -1.94637 1.12188 
2 -2.32792 -1.13224 0.804681 
1 -1.60331 -1.05655 1.35652 
1 -3.11443 -0.700571 0.920023 
1 -3.45453 0.0177256 1.67835 
1 -1.29981 -0.164851 1.77846 
1 -2.36179 -0.112511 1.4291 
2 -2.33303 0.693959 0.991602 
1 -1.4771 0.511358 0.915554 
1 -0.899243 -0.421448 0.796582 
1 -3.72522 0.741685 0.899223 
1 -2.94139 0.897119 1.61738 
1 -3.78403 1.77869 1.02666 
2 -1.72728 1.40487 0.776586 
1 -2.00176 1.22236 1.58383 
1 -1.02102 1.37423 1.38998 
1 -3.90632 -1.63012 0.115187 
1 -3.38367 -3.69921 0.871486 
2 -2.79363 1.7867 1.5546 
1 -3.5894 -2.55096 1.84261 
2 -4.11587 0.632424 -2.63977 
1 -1.68975 -3.607 -1.24854 
1 0.259767 -3.06359 -3.00175 
2 -0.072908 -3.64944 -3.68671 
1 -0.466118 -2.15095 -3.21446 
2 0.378234 -2.24469 -3.55081 
1 0.494343 -1.92274 -2.74245 
2 -0.0271796 -1.38437 -3.32495 
1 -0.428451 -1.29244 -2.55248 
2 0.450175 -1.14453 -2.33084 
1 -0.591741 0.630542 -2.3961 
1 -0.269868 0.281541 -3.35403 
1 0.313512 -0.645976 -3.03659 
1 -0.374055 1.36773 -3.17104 
1 -0.27693 -2.30585 -2.14843 
1 -0.172906 -3.44624 -1.93635 
2 -0.0608412 -2.74339 -1.41783 
1 0.64261 -3.34895 -1.21391 
1 0.070896 -1.43011 -1.61301 
1 -0.185033 -0.377332 -2.10516 
1 -0.0410681 -0.505409 -1.05936 
1 0.0931414 0.530812 -1.45027 
2 0.0175717 1.1604 -2.05338 
1 -0.867184 1.22975 -1.58709 
2 -0.154117 1.36864 -1.07588 
1 0.288347 -2.49759 -0.638694 
1 0.397203 -3.44956 -0.143949 
1 0.0628377 -1.45804 -0.527964 
2 0.0993299 -1.76729 0.329909 
2 -0.491752 -0.127466 -0.38311 
1 0.000591361 -0.695395 0.183756 
1 -0.58917 0.75192 -0.642751 
1 -0.392159 0.358394 0.366431 
1 0.333413 0.171194 -0.398735 
2 0.0517746 0.988387 -0.0767876 
1 -0.109343 -3.49345 1.20481 
1 -0.212352 -2.41866 0.899995 
2 0.60461 -3.19332 0.824381 
2 -0.266642 -1.84438 1.59253 
1 -0.501018 -0.965944 1.67901 
1 0.372292 -1.45826 1.15672 
1 0.19603 -0.330206 1.14998 
1 -0.524701 0.42668 1.42755 
1 -0.16247 1.30859 0.749906 
1 0.0124472 1.3572 1.77826 
1 -0.304997 1.77487 -0.287154 
2 0.300962 0.668073 1.28945 
1 1.16446 -2.63274 -3.34794 
2 0.90905 -2.74777 -2.49773 
2 1.18171 -3.49226 -3.06965 
1 1.50543 -2.11127 -2.4743 
2 1.55554 -1.83833 -3.28791 
1 1.23618 -1.11943 -2.76539 
1 0.805806 -1.49476 -3.67498 
2 1.06016 -0.203759 -2.71685 
2 1.13234 -0.683246 -3.52788 
1 0.472179 0.447646 -2.48853 
1 0.769517 0.13597 -3.49345 
1 0.563461 1.54159 -2.61912 
1 0.702708 1.21775 -3.63257 
1 0.857332 -3.63518 -2.23473 
1 1.67755 -3.65385 -1.48812 
1 0.693257 -2.40559 -1.70666 
1 1.11219 -1.90864 -0.742748 
1 1.13583 -1.45483 -1.72973 
1 0.824097 -0.480903 -1.92545 
1 1.07552 0.116598 -1.12814 
1 1.01598 1.00695 -1.73511 
1 0.360263 1.8381 -1.58597 
1 1.43029 -2.92319 -0.612284 
1 0.704032 -2.4602 0.350848 
1 1.37165 -3.32424 0.381761 
1 0.923569 -0.855425 -0.698815 
1 0.904648 -1.43942 0.224766 
1 0.990923 -0.397621 0.323598 
1 0.612087 0.597441 0.485981 
1 0.656763 1.13525 -0.715201 
1 0.688537 1.66509 0.242154 
1 0.65063 -2.61751 1.51303 
1 1.34778 -1.95896 1.11886 
1 1.26417 -0.863747 1.27993 
1 1.06663 0.171432 1.37438 
1 0.979271 1.24095 1.18236 
1 1.43252 0.69606 -2.9771 
1 0.966786 -3.65144 1.56471 
2 1.63617 -1.41523 -0.264375 
1 3.52043 -2.73112 -2.07899 
1 3.20095 1.1051 -0.0281305 
1 1.69961 -2.95585 1.39343 
1 1.74923 -2.43268 -1.50241 
1 1.76931 -2.26007 0.1767 
1 1.41176 0.434954 -0.181977 
1 1.7639 -3.13075 -2.44782 
1 1.97424 -3.48548 -3.49528 
1 2.22531 -2.50579 -3.22619 
1 2.82154 -3.37306 -2.65348 
1 2.54729 -2.33643 -2.25802 
1 3.28086 -2.76134 -3.40889 
2 2.87276 -3.5346 -3.57411 
1 2.28078 -1.46372 -2.85123 
1 1.86087 -0.340279 -3.06776 
1 2.8582 -0.58237 -2.62682 
1 2.4687 0.463806 -2.61634 
1 2.28407 0.467379 -3.66238 
1 1.64042 1.51521 -2.40933 
1 2.96832 1.17931 -3.26628 
1 2.59057 -3.13536 -1.58277 
2 2.03778 -1.68586 -1.92362 
1 1.95133 -1.38654 -1.09806 
1 1.96588 -0.819186 -2.04283 
1 2.92038 -1.40989 -1.91844 
1 2.73643 -2.15858 -1.18647 
1 2.8292 -0.895768 -0.928184 
2 1.48953 -0.653128 -1.32936 
1 1.59198 0.175608 -2.09499 
1 2.13845 -0.0646206 -1.22257 
2 2.73368 -0.558434 -1.73719 
1 3.06077 0.227387 -1.75847 
2 1.53063 0.813411 -1.00143 
1 1.5239 1.70696 -1.06601 
1 2.94724 1.29839 -2.19167 
1 2.16765 0.958705 -1.58121 
1 2.50404 -2.84604 -0.401633 
2 3.21278 -2.26189 -0.391921 
1 2.38158 -3.19854 0.646975 
1 2.92114 -2.36861 0.465284 
1 3.34981 -3.36233 0.111793 
2 1.97708 -2.18891 -0.693699 
1 1.92589 -1.25345 0.546065 
1 2.5343 -1.65716 -0.242546 
1 1.8782 -0.589004 -0.349307 
2 1.45032 0.553179 0.700308 
1 2.83847 -0.66962 0.150281 
1 1.93452 -0.196431 0.690417 
2 2.24997 0.14288 -0.0750391 
1 2.95032 0.144265 -0.599634 
1 2.76705 0.371191 0.590121 
2 1.38111 1.32533 -0.236891 
1 2.22266 0.980087 -0.461561 
2 2.45486 1.6872 0.0879573 
1 1.83595 1.28196 0.528733 
1 3.23606 -3.14773 1.23641 
1 2.55381 -2.44078 1.67274 
1 2.03671 -1.47941 1.75639 
2 2.21792 -2.03517 0.940881 
1 2.86924 -1.44634 0.985106 
1 2.32572 -0.4643 1.6471 
1 1.97349 0.65334 1.41504 
1 2.97383 0.352117 1.68827 
1 2.76768 1.29879 1.10197 
1 1.85976 1.70468 1.65271 
2 3.29377 -2.22441 1.25055 
2 2.57461 -3.67875 1.43129 
1 1.73474 1.42981 -3.71619 
1 3.20451 1.07081 -1.13516 
1 3.33123 -1.84934 -2.84153 
1 3.27185 0.134096 -3.38412 
1 3.49594 -2.94785 -0.884654 
1 3.3111 -0.511772 1.10582 
1 3.52982 -3.70198 -1.64287 
2 -1.54625 3.72335 -1.36763 
1 -3.91685 3.6304 -2.33535 
1 -2.60579 2.06994 -2.60369 
2 -3.62761 3.12331 -3.03372 
1 -4.19453 2.49535 -3.21667 
1 -3.1342 2.42712 -3.43996 
1 -2.78861 3.11796 -2.69975 
1 -1.98793 2.41213 -3.45044 
1 -1.70817 2.58735 -2.4212 
2 -1.96895 3.19896 -3.0579 
1 -1.16326 3.50515 -2.91161 
1 -4.17728 2.09674 -1.56721 
2 -1.2307 2.0512 -1.82561 
1 -3.61433 2.60363 -2.28797 
2 -3.23456 3.24539 -1.86885 
1 -3.46721 2.73655 -1.12605 
2 -4.14223 3.02773 -1.65826 
1 -1.93119 3.61086 -2.15524 
1 -2.55528 2.69824 -1.73207 
1 -2.29981 2.53151 -0.717521 
1 -1.54827 2.79202 -1.39466 
1 -4.28003 2.16011 0.119729 
1 -3.00193 2.20443 0.00388685 
1 -1.97506 1.90047 0.0805828 
1 -4.31156 3.38446 -0.624259 
2 -4.24305 2.49632 -0.721964 
1 -3.01975 3.62397 0.764529 
1 -3.68266 3.00937 0.171189 
1 -2.94961 3.38501 -0.456706 
1 -1.74187 3.4523 -0.515264 
1 -2.20808 2.95144 0.329747 
1 -1.20471 2.54081 -0.323832 
1 -1.10064 3.24459 0.450644 
1 -2.14236 2.16452 1.10072 
1 -1.17186 2.18703 0.704489 
1 -3.12919 2.57997 1.01923 
1 -3.63887 3.2738 1.7156 
1 -4.2801 2.75329 1.00906 
2 -2.38722 3.03967 1.20222 
1 -1.50728 2.95302 1.45155 
1 -2.62698 3.62854 1.82428 
1 -0.890602 2.46341 -3.08281 
1 -0.134221 3.32054 -3.12972 
1 -0.451545 1.90943 -2.25818 
1 -0.717997 2.95518 -2.07533 
1 -0.583502 2.24371 -1.21789 
1 -0.773286 3.35907 -1.04078 
1 -0.217772 2.86854 -0.285444 
1 -0.153765 2.35501 0.6409 
1 -0.0462441 3.39835 0.657554 
2 -0.625651 3.03356 1.18617 
1 -0.648288 2.29661 1.66048 
1 0.140115 2.2889 -3.41673 
1 1.19854 2.28914 -3.05309 
1 0.280542 2.61312 -2.4149 
1 1.00496 3.30043 -2.68719 
1 1.19355 2.41512 -1.88564 
1 0.214535 2.98205 -1.41384 
1 0.625172 2.24932 -0.666607 
1 0.560302 3.4944 -0.542143 
1 0.747994 2.78496 0.238021 
2 0.373686 1.90748 1.20171 
1 1.1665 2.26271 1.03856 
1 1.10956 3.41388 1.0376 
1 0.266056 2.75488 1.51081 
1 2.95954 3.66065 -3.19774 
1 2.11056 3.68687 -0.796123 
1 1.47889 3.48523 -0.00692202 
1 2.34198 2.07605 -2.95298 
2 1.81377 2.61239 -2.47365 
1 2.73591 2.93559 -2.35458 
1 1.98241 3.15288 -3.15364 
1 1.46855 2.85311 -0.928636 
1 2.55719 2.8353 -1.24796 
1 1.80565 3.30121 -1.91935 
1 2.25802 2.08684 -1.85512 
1 1.60875 2.14441 -0.0740002 
1 2.57745 1.90519 -0.757223 
1 2.3684 2.82281 -0.165725 
2 1.61539 2.80806 0.536876 
1 2.84462 2.13071 1.77886 
1 2.27791 2.24343 0.789929 
1 2.25137 3.34145 0.792765 
1 1.78357 2.85466 1.65753 
1 2.70168 3.34467 1.79269 
2 3.08523 2.12423 -2.43174 
2 2.95574 3.27858 0.258511 
1 -3.71569 1.6499 3.69774 
1 -2.5706 -2.25771 2.009 
1 -0.863673 -3.57734 1.95815 
2 -1.20665 -1.00846 2.212 
1 -3.87877 1.11267 2.01328 
1 -3.26025 -3.47649 2.50213 
2 -3.11782 -2.57426 2.61684 
1 -3.08481 -2.93241 3.43155 
2 -2.44901 -3.57305 3.33871 
1 -2.28424 -3.09895 2.59177 
1 -2.0038 -2.86414 3.61131 
1 -1.24397 -2.72594 2.56893 
1 -0.966675 -3.1981 3.67324 
1 -3.54623 -1.97109 3.65843 
1 -2.51854 -2.07947 3.07737 
1 -3.32739 -1.65078 2.4455 
1 -2.95023 -1.12701 3.40571 
2 -2.5234 -1.31837 2.60827 
1 -1.18028 -2.09932 3.42335 
1 -1.76003 -1.70122 2.28609 
1 -1.83994 -1.17165 3.22475 
2 -0.937374 -1.23478 3.18047 
1 -0.716917 -1.77497 2.44257 
1 -3.09633 -0.611347 2.45124 
1 -3.74925 -0.245262 3.19202 
2 -3.2192 0.374073 3.49243 
1 -3.146 0.506959 2.60601 
2 -3.96866 0.280915 2.42155 
1 -2.48416 -0.146856 3.20039 
1 -2.04094 -0.643184 2.32316 
1 -1.1642 -0.366503 2.84196 
1 -2.10615 0.456046 2.30201 
1 -1.70583 0.628859 3.25336 
2 -0.934441 0.177758 3.53002 
1 -0.984306 0.60918 2.39767 
2 -3.41223 1.37784 2.77553 
1 -2.8011 1.13079 3.39673 
1 -4.02465 0.820696 3.16658 
1 -2.58369 1.55507 2.43466 
2 -1.66742 1.2248 2.41509 
1 -1.70652 1.68993 3.16402 
1 -4.19369 1.82998 2.72471 
1 -0.472003 -0.6786 3.69931 
1 -0.337874 -2.67583 1.94327 
2 -0.494076 -0.177245 2.17982 
1 0.273107 0.291217 2.09563 
1 -0.321616 -3.61864 2.87493 
2 -0.0579118 -2.35424 2.70887 
1 -0.0730672 -2.79356 3.45686 
1 0.503916 -3.09988 2.48194 
1 0.36653 -1.81415 2.18764 
1 -0.167312 -1.7212 3.35502 
1 -0.244373 -0.907628 2.68696 
2 0.145971 0.694447 3.49151 
1 -0.222238 0.106576 3.00421 
1 -0.713135 1.02604 3.37174 
1 -0.806963 1.62847 2.4754 
1 0.204787 1.24952 2.79174 
2 -0.0408032 1.63457 3.52315 
1 2.66741 -0.603995 3.67662 
2 1.11499 -1.51375 1.85962 
2 1.32257 -3.15806 2.16247 
1 0.593906 -0.769929 2.09481 
1 1.13102 0.949745 2.15347 
1 0.78845 -3.44617 3.5568 
1 0.750915 -2.28526 3.08588 
1 1.6018 -3.13972 2.98532 
1 1.46176 -2.29184 2.22933 
2 0.51379 -1.40894 2.93526 
1 1.35412 -1.31128 2.70295 
1 0.614623 -0.601901 3.22509 
1 0.828674 0.403843 2.98519 
2 1.08071 1.24849 3.01259 
2 1.40223 0.607402 3.63255 
1 1.48033 -0.195945 2.2931 
1 3.1665 -1.61568 1.99552 
2 2.20908 0.287518 2.17608 
2 2.2215 -2.80102 2.42551 
1 2.58241 -2.86626 3.25882 
1 3.06451 -3.23443 2.29779 
1 1.73035 -2.16261 3.36125 
1 1.82728 -1.19252 3.68318 
1 2.33418 -0.870911 2.67213 
1 2.4454 -1.9671 2.64825 
1 2.7747 -1.81171 3.67778 
1 1.63745 -0.225396 3.34795 
1 1.82964 0.711866 2.8854 
1 2.73598 0.125005 2.85745 
1 1.71554 1.76172 2.71744 
1 2.56683 1.14248 2.31075 
2 2.56062 1.07711 3.22487 
1 3.50506 -3.45275 3.27835 
1 3.46854 -2.4121 2.8331 
1 3.35045 -1.23424 3.03739 
1 3.29022 -0.562205 2.20624 
1 2.09976 -3.6387 2.15953 
1 -2.6341 3.28911 3.70881 
1 -2.1616 3.70822 2.85775 
1 -3.53624 2.13944 1.96903 
1 -1.69353 2.07675 2.08236 
1 -2.62565 2.59247 1.96534 
2 -1.95652 3.09225 2.21922 
2 -2.52862 1.96259 3.48181 
1 -3.23638 2.25501 2.98529 
1 -4.13205 2.89534 2.59537 
1 -3.12362 3.2789 2.693 
2 -4.05967 2.42696 3.37018 
1 -3.75862 3.24487 3.5486 
1 -2.22105 2.61997 2.95228 
1 -1.47749 3.1987 3.60697 
1 -1.19822 2.78263 2.63896 
1 -0.574763 3.3331 2.02977 
1 -0.781182 2.11834 3.41384 
1 -0.394343 3.0963 3.33216 
1 -0.0589316 2.40285 2.55757 
2 0.895874 3.18925 1.86013 
1 0.830798 1.97998 2.04157 
1 0.761198 2.06854 3.20377 
1 0.365478 3.45509 2.58194 
1 0.734647 3.10792 3.62531 
1 2.62827 1.92578 3.50217 
1 1.22888 2.80066 2.58601 
1 1.7044 2.51525 3.51363 
2 2.58651 3.43035 2.66883 
1 2.31053 2.60517 2.58282 
1 2.67889 2.98836 3.48763 
1 1.79365 3.54002 3.12581 
