ITEM: TIMESTEP
2211
ITEM: NUMBER OF ATOMS
500
ITEM: BOX BOUNDS xy xz yz pp pp pp
-4.10795 3.7345 -0.37345
-3.7345 3.7345 0
-3.7345 3.7345 0
ITEM: ATOMS type x y z 
1 -0.848475 2.40584 -0.157873 
1 0.298908 0.507762 -1.41413 
1 1.63685 0.454453 -0.167267 
1 -0.130659 -2.41539 0.956862 
1 2.46083 0.976888 -0.502794 
1 2.9704 -0.563217 -2.6187 
1 0.0607073 -0.534613 -1.00489 
1 -1.52983 -3.33599 -0.0475765 
1 2.02214 -1.40864 -1.12449 
1 2.80204 -0.627567 3.71159 
1 -3.3445 1.83841 1.07737 
1 0.990362 -1.47712 0.209524 
1 -0.405692 0.718659 -0.606942 
1 -1.79009 3.70706 2.89689 
1 2.26005 2.88384 1.66499 
1 -1.64411 2.37118 -3.41395 
1 3.20707 1.31706 -2.2055 
1 2.28269 -2.50453 -3.24028 
1 2.20894 3.24708 -1.98976 
1 2.62701 -3.19708 -1.58756 
1 -3.31788 0.155174 -1.08305 
1 1.02313 -3.69159 1.55168 
1 0.773141 -0.599589 3.24305 
1 -3.84879 2.50044 -3.21042 
1 2.47295 -1.92372 2.62133 
1 -0.727151 -1.00748 -0.309021 
1 2.17257 1.67723 1.65736 
1 1.33826 -1.15235 -2.76402 
1 -1.14544 2.25464 0.900696 
1 -1.76859 1.87573 0.151015 
1 -1.82571 1.35891 -3.34283 
1 -1.17937 -3.63641 0.944753 
1 -3.09477 2.69566 -1.09393 
1 -3.79392 -1.68022 -0.964651 
1 -1.47289 0.640495 3.29565 
1 0.722026 -2.66633 1.54216 
1 1.99808 -0.59391 -0.378435 
1 0.210467 3.29811 -3.1699 
1 -1.64636 -3.56595 -1.12998 
1 1.14269 -0.428155 0.257749 
1 1.5565 3.42882 1.05256 
1 -0.269041 -2.26372 -2.11357 
1 -0.0277542 3.08324 3.28533 
1 -2.91033 -0.576061 2.4377 
1 0.80392 1.53499 -2.61625 
1 -3.31032 -3.25926 2.42184 
1 -0.124006 1.39943 -3.17646 
1 -1.35253 3.32626 -0.444436 
1 2.04344 -0.838096 -2.04607 
1 -2.40773 0.582393 -1.521 
1 3.47542 -0.479309 2.21031 
1 -1.57987 -3.47116 -3.0008 
1 -0.207878 0.367204 0.391327 
1 -0.086921 -0.909866 2.68316 
1 1.78619 -2.17403 3.3509 
1 -1.11202 3.04682 1.571 
1 2.59535 -2.3607 -2.25563 
1 0.270503 3.38364 0.660831 
1 1.45097 2.47181 -1.84465 
1 0.808632 -2.28831 3.07162 
1 2.60805 2.28491 0.804111 
1 -0.368743 -2.16551 -3.19955 
1 3.51286 -0.486766 1.10672 
1 1.85488 1.59857 -2.3822 
1 -0.424233 -3.1949 0.322269 
1 1.38305 -3.35863 0.411291 
1 3.30558 -2.7985 -3.46713 
1 2.84887 -1.82087 3.63238 
1 1.98965 -0.338023 -3.0533 
1 1.80338 1.72451 -1.07887 
1 -1.71425 -0.285799 -1.4733 
1 2.60333 -2.35362 1.66227 
1 -3.75065 -0.730391 -1.60331 
1 0.756849 -0.716123 2.10047 
1 2.98892 -3.19823 2.24978 
1 0.4367 -1.44593 1.14559 
1 -2.73941 -1.80986 -1.42765 
1 -0.697007 1.40388 1.325 
1 -2.26514 1.4722 2.44915 
1 0.121508 2.83971 -0.272626 
1 -0.774593 3.21519 0.520858 
1 -3.24032 -1.60194 2.46265 
1 2.08277 0.708355 2.89685 
1 -1.05725 -2.13064 3.44234 
1 0.562328 -1.93473 -2.71748 
1 3.61877 -2.81191 -1.03744 
1 2.75452 -3.39599 -2.7311 
1 -3.86692 2.09581 -1.55025 
1 -0.890089 -3.50968 2.00451 
1 3.16425 2.95683 -2.34082 
1 0.718566 -3.40475 -1.23103 
1 -0.641398 -1.75927 2.46895 
1 -3.56322 -2.40038 1.80539 
1 1.27565 0.191031 1.38544 
1 1.16653 -1.97131 -0.753411 
1 -2.58041 1.27742 0.523438 
1 -1.89665 2.92607 0.423603 
1 3.15226 2.07448 1.7616 
1 -1.69094 -1.72111 2.30526 
1 -3.18701 0.747351 -3.21842 
1 -2.91841 -1.64978 -3.08893 
1 1.77553 -2.49711 -1.51749 
1 0.151823 1.31188 0.717273 
1 3.51042 -2.86066 -2.23669 
1 -1.11583 -0.175178 1.75891 
1 -3.4109 -3.61819 0.809795 
1 -2.75533 3.25861 2.67049 
1 -0.0659448 -1.69861 3.38191 
1 2.11737 3.54699 3.12145 
1 2.22633 0.648671 1.40816 
1 1.3509 3.26346 -2.71753 
1 -3.77817 0.84181 3.1893 
1 2.93376 -1.38759 -1.91165 
1 -2.30287 0.108279 -0.574647 
1 -2.5679 3.35322 -0.38327 
1 3.2425 -1.51773 1.99869 
1 2.02925 1.4295 -3.71298 
1 -1.8797 -0.675444 2.30101 
1 3.217 0.167667 -0.56313 
1 -4.10397 3.70302 -3.18351 
1 -1.76347 1.53926 -1.7329 
1 2.95127 0.126962 2.9161 
1 2.59257 -2.86031 3.21659 
1 -0.0612102 2.34753 0.673995 
1 1.1674 2.00023 2.05635 
1 -0.90234 -3.26723 3.72137 
1 3.2534 -3.04597 1.2081 
1 1.82 -0.23313 3.34943 
1 -2.75926 2.75193 1.08661 
1 -3.35924 1.63628 -2.68029 
1 -2.60196 -3.5293 -3.21136 
1 1.10284 2.07119 3.19727 
1 1.86809 3.45803 -0.0333071 
1 -2.31091 2.49102 2.0583 
1 -0.0104463 0.10781 2.99243 
1 -2.2351 3.27874 -3.70992 
1 1.47607 -1.28284 2.69567 
1 1.46193 2.25612 -3.12245 
1 -2.34898 -0.138978 -2.36902 
1 -0.790281 3.48591 -2.89134 
1 -0.454871 1.02915 3.36991 
1 0.992225 2.29788 -0.655034 
1 -0.590611 -1.49491 0.764515 
1 1.23816 1.0105 -1.73025 
1 -0.538125 1.60015 2.4739 
1 -0.163445 3.31448 2.0973 
1 -0.0787141 -3.50696 1.29518 
1 2.66503 2.05438 -2.94135 
1 -1.38609 2.57055 -2.39516 
1 2.89487 -1.35621 1.00045 
1 -3.56131 -0.0370103 0.230005 
1 1.57444 -2.15152 -2.49867 
1 -3.42868 1.67662 3.69479 
1 1.81523 -2.26314 0.173722 
1 2.49491 -0.837495 2.65771 
1 -2.84658 -1.12206 3.4019 
1 2.3722 -1.47104 -2.85853 
1 2.539 -0.421406 1.61899 
1 1.97464 -3.48108 -3.51394 
1 -2.29225 2.01021 -2.58896 
1 -3.25068 3.53354 1.69772 
1 -1.44748 -2.47172 -0.668945 
1 1.78647 0.170445 -2.06228 
1 -0.661025 1.21606 -1.54019 
1 1.20891 -2.65079 -3.36 
1 -1.0192 -1.2903 -3.33964 
1 0.627327 1.83785 -1.53351 
1 -2.13225 -0.0284079 1.44101 
1 2.11174 1.30444 0.516107 
1 -1.25049 1.70149 -0.805555 
1 -2.12531 0.349789 -3.32024 
1 -1.39223 -0.90735 -2.32464 
1 -1.45683 0.521644 -2.20932 
1 -3.83548 3.12783 2.64582 
1 2.90991 1.12523 2.38509 
1 -2.32904 1.39042 -0.740493 
1 3.23594 0.231024 -1.73974 
1 0.842833 -3.69474 -2.25929 
1 0.439584 2.29068 -3.45715 
1 -2.14245 -1.63114 -2.36358 
1 -1.90252 0.386614 2.39487 
1 1.99413 -1.24041 0.498257 
1 -3.94483 2.16283 0.185697 
1 -1.67846 -1.47086 -1.3895 
1 3.45988 -3.1203 0.0421653 
1 0.501147 2.94488 -1.41219 
1 1.21416 -1.53974 -1.75446 
1 -0.623776 -1.98226 -1.12476 
1 -2.70118 -2.93078 1.24146 
1 0.551089 -3.15684 2.50137 
1 -2.93527 0.524764 2.60338 
1 0.192494 -1.44544 -1.58194 
1 2.09472 -1.40928 1.74512 
1 -1.46169 -1.11263 1.37648 
1 0.310296 1.44531 1.7442 
1 2.91301 -2.29448 0.484921 
1 3.37613 -1.89745 -2.90116 
1 0.505249 0.148887 -0.382972 
1 -1.53365 3.58261 -2.10247 
1 -2.78171 2.22962 0.108958 
1 2.54467 -2.82644 -0.418778 
1 -2.57428 0.226408 0.476581 
1 -0.179848 1.86853 -2.2106 
1 2.96623 -0.65476 0.151601 
1 2.39123 1.0084 -1.62001 
1 -2.88709 2.23423 2.9726 
1 0.958085 3.42901 -0.561639 
1 -2.18775 3.47809 1.72503 
1 -0.76351 -0.951404 -1.47282 
1 -2.11935 1.87491 1.22189 
1 3.01867 3.01295 3.52929 
1 -0.479067 2.11885 3.42497 
1 0.192436 -1.52031 -0.520365 
1 -3.3432 0.790185 -1.9799 
1 3.44362 -2.37179 2.76536 
1 2.86799 1.9124 -0.756173 
1 -3.25546 2.58906 -2.26116 
1 -0.409597 2.92565 -2.03796 
1 -2.41915 0.980097 -2.50681 
1 -2.98531 -2.81775 -1.82046 
1 1.66181 0.741643 -2.93976 
1 -0.989655 -0.38428 2.83111 
1 1.77119 -2.92966 1.36685 
1 2.32812 0.0630274 -1.13777 
1 -3.8583 3.35415 -0.66537 
1 1.06574 2.78463 0.303987 
1 -0.777726 0.580901 2.41585 
1 2.89121 -0.84415 -0.935575 
1 -0.350317 -1.284 -2.50307 
1 1.71334 -0.16013 2.28381 
1 -1.73407 -0.812431 -0.535416 
1 1.06327 0.40501 2.99355 
1 0.296649 -3.09804 -3.02474 
1 0.695922 0.423911 -2.45832 
1 -2.25192 -3.1534 2.59159 
1 -0.732948 -0.4628 0.773702 
1 -1.03189 0.655345 -3.2194 
1 0.457878 -0.638861 -3.02572 
1 -2.76237 -3.70887 -1.26645 
1 -2.13353 -3.44683 -2.08639 
1 -3.35754 3.23006 3.58532 
1 0.0248258 -0.381264 -2.07165 
1 1.38099 -1.9488 1.11842 
1 -2.03477 -2.02523 1.13653 
1 -2.39885 3.09796 -2.65636 
1 -1.41539 1.69545 3.18552 
1 1.24402 1.26234 1.18039 
1 -3.38808 3.07183 0.221441 
1 2.67147 0.480338 -2.59792 
1 0.270023 2.3466 2.56882 
1 2.56184 2.12462 -1.85747 
1 3.23069 0.430262 1.63828 
1 -1.24079 -2.08913 -2.58509 
1 -0.0233051 0.316384 -3.35808 
1 2.65986 3.39499 0.759716 
1 -3.48271 -2.45574 0.71411 
1 -1.24875 -2.56255 0.629271 
1 3.45582 0.113276 -3.38213 
1 2.72002 2.5722 2.60426 
1 -1.93482 -2.45194 -1.72735 
1 2.92502 2.85266 -1.24331 
1 2.42429 -3.19756 0.592832 
1 3.22312 1.16578 -3.28803 
1 0.145349 -0.79038 0.239871 
1 -1.35728 -0.317392 -3.6574 
1 -3.34872 2.47366 1.968 
1 -1.71477 -1.17773 3.2398 
1 -3.3716 1.75996 -0.646709 
1 -3.23501 -2.67709 -2.97049 
1 -1.92867 -2.90324 3.60817 
1 0.689294 -2.46913 -1.71572 
1 -0.990949 -2.88506 -1.6365 
1 -2.80356 -1.66006 0.452285 
1 2.48276 0.447464 -3.63 
1 1.25916 0.123859 -1.09584 
1 0.29377 -2.55849 -0.66863 
1 3.38331 1.13497 -0.0418317 
1 1.48075 -2.97425 -0.591542 
1 3.4566 1.07264 -1.1388 
1 1.00594 0.13274 -3.46389 
1 1.32578 3.68144 -1.55031 
1 1.93957 2.18611 -0.0771763 
1 2.95888 1.93135 3.495 
1 -2.29001 -0.185837 3.23249 
1 -0.809279 1.33501 0.209453 
1 -0.345013 0.674269 -2.38333 
1 -0.260399 -2.66166 1.99657 
1 -3.5477 1.19973 1.97977 
1 -1.87892 2.62008 3.01231 
1 2.99213 -3.73126 -0.727739 
1 -3.6094 -0.741651 -0.525565 
1 -1.77602 0.834823 0.0349608 
1 0.9677 1.22543 -3.63676 
1 -3.85543 1.89245 2.7052 
1 0.492258 0.344264 2.10062 
1 -2.26086 -1.74838 -0.486027 
1 -0.578045 -3.16362 -0.718145 
1 -2.6779 -0.749257 -0.0449669 
1 1.40523 0.962969 2.15574 
1 1.05617 -0.905198 -0.774955 
1 -0.143528 -3.46714 -1.9001 
1 -2.54419 -1.29722 1.7099 
1 -2.77925 2.41357 -3.42246 
1 -1.55751 -1.54105 0.289007 
1 1.50515 -2.25172 2.20537 
1 1.52807 2.30211 1.09459 
1 -0.875269 2.72957 2.62594 
1 -2.97278 -1.01971 -2.24007 
1 -1.04117 -2.09258 1.54725 
1 0.488923 1.25588 2.76463 
1 -2.96189 -0.295049 -3.36444 
1 1.09961 3.09657 3.61905 
1 2.77774 2.82425 -0.160249 
1 -3.02539 -3.00636 3.42686 
1 -3.53334 -1.4718 1.17967 
1 0.839423 0.569724 0.495841 
1 -1.08123 3.13869 3.62088 
1 -0.358736 -0.944708 1.67708 
1 -1.23537 2.75924 -1.34368 
1 1.89167 2.87655 -0.946213 
1 0.782318 3.38459 2.58259 
1 -3.60245 -1.88307 -1.99293 
1 -1.78171 -0.486263 0.525335 
1 3.61439 -3.69757 -1.61695 
1 -2.28442 -2.59619 0.245381 
1 -2.95862 -3.36332 -0.122713 
1 -2.87802 -0.641094 0.98233 
1 -0.29709 -0.657718 3.69284 
1 1.01626 -0.53455 -1.85566 
1 -2.43808 -2.78529 -0.856696 
1 0.369643 -0.2931 1.14384 
1 0.580012 2.71955 1.47791 
1 2.04352 -3.69012 2.09623 
1 -2.67984 -0.780598 -1.14639 
1 2.76986 -2.17219 -1.21494 
1 -1.90686 -1.88196 -3.43662 
1 -3.44775 -2.0272 3.56368 
1 -1.19834 0.492097 0.845312 
1 -2.10204 -0.866519 -3.14764 
1 -0.423288 3.36637 -1.00203 
1 1.02671 1.68041 0.24059 
1 2.05995 2.51237 3.51424 
1 -0.70564 0.128737 -1.50603 
1 -0.562721 2.43644 -3.05021 
1 0.0671048 1.75843 -0.291827 
1 -3.48097 0.795957 0.863836 
1 -2.21852 2.61056 -1.71065 
1 -1.69731 -2.93015 1.60746 
1 1.34697 -0.849366 1.22869 
1 -3.75176 -0.994049 -3.33834 
1 -3.54807 -0.230253 3.19085 
1 -0.712953 -3.01081 -2.69606 
1 -1.12502 0.0340205 -0.143637 
1 1.65471 2.77666 2.56968 
1 -1.24678 -2.69512 2.58022 
1 -3.23223 -2.32755 -0.316412 
1 3.13424 3.50383 1.75197 
1 0.917922 1.13054 -0.698846 
1 -1.38394 2.02241 2.00052 
1 -3.51634 -0.142571 -2.47657 
1 3.49285 -3.46791 3.20121 
1 -3.10393 0.798529 -0.270304 
1 -1.59362 1.02589 1.64863 
1 -0.323752 2.21316 -1.17258 
1 2.0816 -0.184048 0.666104 
1 0.456555 -3.49542 -0.187559 
1 2.04713 1.75011 2.72143 
1 -2.254 -3.71913 0.683752 
1 -2.04313 2.46884 -0.674827 
1 -0.313029 0.443966 1.45388 
1 -3.23394 0.0897985 1.67205 
1 1.75449 -3.16727 -2.45423 
1 -0.366538 2.31608 1.71003 
1 -3.46191 3.63664 -2.31676 
1 3.08723 1.3527 0.99219 
1 0.897864 -1.50311 -3.66545 
1 2.35108 3.09295 -3.10851 
1 -1.46471 0.671565 -0.999458 
1 -2.20364 -2.62404 -2.7767 
1 3.60303 -1.58923 0.119476 
1 -0.0324213 -2.79845 3.44834 
1 -0.559526 -2.15782 -0.0762626 
1 2.60232 -1.65188 -0.283559 
1 0.808806 -3.45984 3.53801 
1 -1.103 1.53819 -2.58859 
1 0.447232 -1.79098 2.1756 
1 1.61241 -3.1462 2.93369 
1 1.93288 -1.20495 3.67719 
1 -2.54589 1.11606 3.41384 
1 -0.702333 -0.291622 -2.81959 
1 -2.85402 1.70896 -1.66623 
1 -2.53996 -2.30343 2.06614 
1 0.725441 -2.49637 0.317822 
1 0.562579 2.59512 -2.43302 
1 -3.91859 2.79354 1.08137 
1 3.46482 -1.19188 3.0497 
1 -0.323401 -3.64653 2.88799 
1 -2.62904 0.950184 1.5516 
1 2.95722 0.375171 0.567495 
1 -2.4138 -2.07934 3.10035 
2 0.000779125 -2.30303 2.73772 
2 0.527028 0.702639 1.29366 
2 -3.09735 1.0341 -1.1332 
2 1.63697 0.617479 3.65184 
2 2.49826 0.308094 2.18212 
2 -2.69482 1.50647 -3.24489 
2 2.79616 -0.516071 -1.73884 
2 -1.17341 3.69521 -1.31514 
2 -3.45414 -3.24257 1.58002 
2 -3.13717 -2.44413 2.73081 
2 1.97796 2.82853 0.54966 
2 -3.47202 -0.891709 0.40852 
2 -2.84061 -2.14064 -2.34988 
2 3.27948 -2.28278 -0.374314 
2 -1.49616 -2.90776 -2.33917 
2 0.31241 1.14441 -2.00677 
2 3.27993 3.48605 0.12825 
2 2.45504 0.119841 -0.127565 
2 -0.051635 -3.67817 -3.68603 
2 0.23727 1.62587 3.49877 
2 -2.03816 0.714304 0.942267 
2 -2.82174 1.77731 1.81543 
2 2.04744 2.51838 -2.49487 
2 1.33412 -3.11115 2.10846 
2 -3.22875 3.10445 -3.00394 
2 -1.57987 -0.154789 -2.81054 
2 -1.59958 3.181 -3.05284 
2 -2.80859 3.22396 -1.86305 
2 -1.30524 -1.61037 -0.586726 
2 -0.93752 -1.67833 -1.89833 
2 -2.21871 1.94198 3.50622 
2 -2.38385 -3.61767 3.34715 
2 2.09304 -1.71682 -1.94064 
2 0.554619 -1.14012 -2.31515 
2 -1.32175 -2.61681 -3.27912 
2 0.290865 0.947374 -0.083315 
2 -0.787516 -2.92708 1.3142 
2 1.6755 0.590572 0.71444 
2 0.599166 -3.20802 0.826664 
2 1.63457 -1.85299 -3.29936 
2 -3.73819 2.46532 3.35894 
2 -0.70494 0.184773 3.52548 
2 -2.97419 0.358218 3.48687 
2 1.18162 -3.51618 -3.08719 
2 -3.79696 0.387343 2.41221 
2 -2.1902 -1.1904 0.869134 
2 0.0894381 1.31713 -1.0603 
2 0.152288 -1.77442 0.347954 
2 3.32554 -2.10441 1.23059 
2 0.685083 1.948 1.05457 
2 -3.34279 -0.824874 1.72228 
2 -2.89989 -2.05572 1.28525 
2 -2.63084 -2.38245 -3.5494 
2 0.0650338 -1.3811 -3.28074 
2 -3.83409 -1.12614 -2.4368 
2 -1.44489 1.40149 0.831802 
2 -1.41296 1.17937 2.49193 
2 -0.298832 -0.203831 -0.275067 
2 -3.90554 0.634571 -2.65315 
2 2.01705 -2.20553 -0.713773 
2 0.634675 -1.41022 2.93871 
2 -0.301884 -0.171182 2.17394 
2 3.41652 2.13398 -2.42259 
2 2.90399 -3.61762 -3.6023 
2 1.21137 -0.256591 -2.6652 
2 -3.91384 2.47456 -0.688876 
2 -3.1347 1.37981 2.79572 
2 -1.07013 -1.02367 2.20304 
2 1.73389 -0.589933 -1.2665 
2 -3.35315 1.51654 0.23227 
2 2.21388 -2.7805 2.36969 
2 0.392058 0.70464 3.46531 
2 1.69997 -1.42294 -0.305722 
2 2.23872 -1.97082 0.954193 
2 0.938166 -2.77597 -2.50745 
2 2.81242 1.06752 3.29246 
2 -0.955383 1.55754 -3.50089 
2 -0.223602 -1.82218 1.61616 
2 -1.04379 -0.385138 -0.88726 
2 1.19757 -1.47007 1.85002 
2 1.67755 1.35367 -0.26088 
2 -3.10354 -1.45478 -0.404362 
2 2.80062 3.45386 2.57298 
2 -0.141307 -2.7453 -1.39223 
2 -3.73477 3.02979 -1.61797 
2 1.3653 1.24935 3.01331 
2 0.448022 -2.25245 -3.54693 
2 1.27749 -0.696408 -3.51265 
2 -2.18048 -0.898411 -1.88191 
2 2.73645 1.74929 0.0966762 
2 1.36112 2.96888 1.7737 
2 -0.975683 2.02195 -1.79711 
2 1.76256 0.81953 -1.02232 
2 -0.272748 3.05556 1.25128 
2 -0.810558 -1.22261 3.19995 
2 -2.41334 -1.31123 2.62882 
2 -2.9837 -0.233793 -1.7798 
2 -1.87758 2.7232 1.30102 
2 2.66701 -3.66594 1.46843 
2 -1.63522 3.06699 2.2822 
