ITEM: TIMESTEP
2212
ITEM: NUMBER OF ATOMS
500
ITEM: BOX BOUNDS xy xz yz pp pp pp
-3.7345 3.7345 0
-3.7345 3.7345 0
-3.7345 3.7345 0
ITEM: ATOMS type x y z 
1 -3.18214 -2.67709 -2.97049 
1 -2.5917 -3.5293 -3.21136 
2 -2.56324 -2.38245 -3.5494 
1 -2.14812 -2.62404 -2.7767 
2 -1.45483 -2.90776 -2.33917 
2 -1.26587 -2.61681 -3.27912 
1 -1.56671 -3.47116 -3.0008 
1 -0.676768 -3.01081 -2.69606 
1 -2.81417 -1.64978 -3.08893 
2 -3.70368 -1.12614 -2.4368 
1 -3.61474 -0.994049 -3.33834 
1 -1.15852 -2.08913 -2.58509 
1 -1.81424 -1.88196 -3.43662 
1 -2.03728 -1.63114 -2.36358 
1 -1.95864 -0.866519 -3.14764 
1 -1.25087 -0.90735 -2.32464 
1 -0.896989 -1.2903 -3.33964 
1 -2.78992 -0.295049 -3.36444 
1 -3.33674 -0.142571 -2.47657 
1 -2.96292 0.747351 -3.21842 
1 -1.18642 -0.317392 -3.6574 
2 -1.40088 -0.154789 -2.81054 
1 -2.1692 -0.138978 -2.36902 
1 -1.92109 0.349789 -3.32024 
1 -0.812394 0.655345 -3.2194 
1 -0.530189 -0.291622 -2.81959 
1 -3.0907 1.63628 -2.68029 
2 -2.43277 1.50647 -3.24489 
1 -2.18342 0.980097 -2.50681 
1 -0.839363 1.53819 -2.58859 
1 -1.57104 1.35891 -3.34283 
2 -0.690782 1.55754 -3.50089 
2 -2.76091 -2.14064 -2.34988 
1 -2.93947 -2.81775 -1.82046 
1 -2.76109 -3.70887 -1.26645 
1 -2.11914 -3.44683 -2.08639 
1 -1.8707 -2.45194 -1.72735 
1 -0.948477 -2.88506 -1.6365 
1 -3.50988 -1.88307 -1.99293 
1 -2.83704 -1.01971 -2.24007 
1 -3.6912 -1.68022 -0.964651 
1 -2.64318 -1.80986 -1.42765 
1 -1.56528 -1.47086 -1.3895 
2 -2.03868 -0.898411 -1.88191 
1 -1.58797 -0.812431 -0.535416 
2 -0.834711 -1.67833 -1.89833 
1 -0.536164 -1.98226 -1.12476 
1 -0.624355 -0.951404 -1.47282 
2 -2.80866 -0.233793 -1.7798 
1 -3.60044 -0.730391 -1.60331 
1 -2.53214 -0.780598 -1.14639 
1 -3.12339 0.155174 -1.08305 
1 -1.54182 -0.285799 -1.4733 
2 -0.876326 -0.385138 -0.88726 
1 -1.24402 0.521644 -2.20932 
1 -2.19188 0.582393 -1.521 
1 -0.512478 0.128737 -1.50603 
1 -3.11697 0.790185 -1.9799 
2 -2.85892 1.0341 -1.1332 
1 -2.58184 1.70896 -1.66623 
1 -2.07279 1.39042 -0.740493 
1 -1.2444 0.671565 -0.999458 
1 -1.49978 1.53926 -1.7329 
1 -3.16188 -2.32755 -0.316412 
1 -2.39062 -2.78529 -0.856696 
1 -2.94007 -3.36332 -0.122713 
1 -3.41878 -2.45574 0.71411 
1 -2.2275 -2.59619 0.245381 
1 -1.38434 -2.47172 -0.668945 
1 -1.19016 -2.56255 0.629271 
1 -1.50991 -3.33599 -0.0475765 
1 -0.5495 -3.16362 -0.718145 
1 -0.397253 -3.1949 0.322269 
1 -3.45976 -0.741651 -0.525565 
2 -2.98955 -1.45478 -0.404362 
1 -2.69983 -1.66006 0.452285 
2 -3.32988 -0.891709 0.40852 
1 -2.16156 -1.74838 -0.486027 
2 -1.19903 -1.61037 -0.586726 
1 -1.44784 -1.54105 0.289007 
1 -0.480692 -2.15782 -0.0762626 
1 -0.5908 -1.00748 -0.309021 
1 -0.478631 -1.49491 0.764515 
1 -2.52864 -0.749257 -0.0449669 
1 -3.37644 -0.0370103 0.230005 
1 -2.37623 0.226408 0.476581 
1 -0.936597 0.0340205 -0.143637 
1 -1.6193 -0.486263 0.525335 
1 -2.11073 0.108279 -0.574647 
1 -2.87728 0.798529 -0.270304 
1 -3.09688 1.75996 -0.646709 
2 -3.0906 1.51654 0.23227 
1 -0.978694 1.70149 -0.805555 
1 -2.32982 1.27742 0.523438 
1 -1.54756 0.834823 0.0349608 
1 -0.555803 1.33501 0.209453 
1 -2.66099 -2.93078 1.24146 
2 -3.42954 -3.24257 1.58002 
1 -1.6571 -2.93015 1.60746 
2 -0.747145 -2.92708 1.3142 
1 -1.17447 -3.63641 0.944753 
2 -2.81595 -2.05572 1.28525 
1 -3.42021 -1.4718 1.17967 
1 -2.42232 -1.29722 1.7099 
2 -3.19731 -0.824874 1.72228 
1 -0.959077 -2.09258 1.54725 
1 -1.94931 -2.02523 1.13653 
2 -2.06299 -1.1904 0.869134 
1 -1.3306 -1.11263 1.37648 
1 -2.72335 -0.641094 0.98233 
1 -3.04272 0.0897985 1.67205 
1 -0.937865 -0.175178 1.75891 
1 -1.94695 -0.0284079 1.44101 
2 -1.81572 0.714304 0.942267 
1 -0.987014 0.492097 0.845312 
1 -0.569363 -0.4628 0.773702 
1 -3.25445 0.795957 0.863836 
1 -2.39481 0.950184 1.5516 
1 -3.06585 1.83841 1.07737 
2 -1.1881 1.40149 0.831802 
1 -1.3556 1.02589 1.64863 
1 -0.440088 1.40388 1.325 
1 -3.40508 -3.61819 0.809795 
2 -2.54615 1.77731 1.81543 
1 -3.49651 -2.40038 1.80539 
2 -3.68709 0.634571 -2.65315 
1 -1.63793 -3.56595 -1.12998 
1 -0.413497 1.21606 -1.54019 
1 0.328472 -3.09804 -3.02474 
2 -0.0488185 -3.67817 -3.68603 
1 -0.290293 -2.16551 -3.19955 
2 0.522124 -2.25245 -3.54693 
1 0.652316 -1.93473 -2.71748 
2 0.182704 -1.3811 -3.28074 
1 -0.227792 -1.284 -2.50307 
2 0.684338 -1.14012 -2.31515 
1 -0.124575 0.674269 -2.38333 
1 0.179239 0.316384 -3.35808 
1 0.612659 -0.638861 -3.02572 
1 0.13269 1.39943 -3.17646 
1 -0.195502 -2.26372 -2.11357 
1 -0.13016 -3.46714 -1.9001 
2 -0.091847 -2.7453 -1.39223 
1 0.306948 -1.44544 -1.58194 
1 0.192488 -0.381264 -2.07165 
1 0.220702 -0.534613 -1.00489 
1 0.511021 0.507762 -1.41413 
2 0.556355 1.14441 -2.00677 
2 0.34202 1.31713 -1.0603 
1 0.35257 -2.55849 -0.66863 
1 0.468509 -3.49542 -0.187559 
1 0.303145 -1.52031 -0.520365 
2 0.250293 -1.77442 0.347954 
2 -0.122299 -0.203831 -0.275067 
1 0.292555 -0.79038 0.239871 
1 -0.183034 0.718659 -0.606942 
1 -0.00279248 0.367204 0.391327 
1 0.699419 0.148887 -0.382972 
2 0.524959 0.947374 -0.083315 
1 -0.0673374 -3.50696 1.29518 
1 -0.0647031 -2.41539 0.956862 
2 0.62549 -3.20802 0.826664 
2 -0.127986 -1.82218 1.61616 
1 -0.219247 -0.944708 1.67708 
1 0.551129 -1.44593 1.14559 
1 0.541713 -0.2931 1.14384 
1 -0.104106 0.443966 1.45388 
1 0.404142 1.31188 0.717273 
1 0.569286 1.44531 1.7442 
1 0.341751 1.75843 -0.291827 
1 -2.25323 -3.71913 0.683752 
1 0.735053 -3.40475 -1.23103 
2 0.748885 0.702639 1.29366 
1 1.2631 -2.65079 -3.36 
2 0.986093 -2.77597 -2.50745 
2 1.19253 -3.51618 -3.08719 
1 1.65359 -2.15152 -2.49867 
2 1.72865 -1.85299 -3.29936 
1 1.46737 -1.15235 -2.76402 
1 1.00943 -1.50311 -3.66545 
2 1.38527 -0.256591 -2.6652 
2 1.42939 -0.696408 -3.51265 
1 0.903843 0.423911 -2.45832 
1 1.1993 0.13274 -3.46389 
1 1.06739 1.53499 -2.61625 
1 1.2157 1.22543 -3.63676 
1 0.752562 -2.46913 -1.71572 
1 1.25469 -1.97131 -0.753411 
1 1.3239 -1.53974 -1.75446 
1 1.17626 -0.53455 -1.85566 
1 1.45208 0.123859 -1.09584 
1 1.47541 1.0105 -1.73025 
1 0.905945 1.83785 -1.53351 
1 1.51876 -2.97425 -0.591542 
1 0.787348 -2.49637 0.317822 
1 1.40184 -3.35863 0.411291 
1 1.19764 -0.905198 -0.774955 
1 1.10323 -1.47712 0.209524 
1 1.30801 -0.428155 0.257749 
1 1.05463 0.569724 0.495841 
1 1.16117 1.13054 -0.698846 
1 1.29746 1.68041 0.24059 
1 0.775435 -2.66633 1.54216 
1 1.47028 -1.9488 1.11842 
1 1.49123 -0.849366 1.22869 
1 1.47192 0.191031 1.38544 
1 1.49386 1.26234 1.18039 
2 1.81555 -1.42294 -0.305722 
1 1.81143 -2.92966 1.36685 
1 1.8374 -2.49711 -1.51749 
1 1.78285 -3.16727 -2.45423 
1 0.844821 -3.69474 -2.25929 
1 1.02527 -3.69159 1.55168 
1 3.71029 -1.58923 0.119476 
1 1.88562 0.741643 -2.93976 
1 3.55411 -2.86066 -2.23669 
1 3.62678 1.13497 -0.0418317 
1 1.8888 -2.26314 0.173722 
1 1.8463 0.454453 -0.167267 
1 1.98731 -3.48108 -3.51394 
1 2.34419 -2.50453 -3.24028 
1 2.77144 -3.39599 -2.7311 
1 2.66404 -2.3607 -2.25563 
1 3.35238 -2.7985 -3.46713 
2 2.90983 -3.61762 -3.6023 
1 2.48538 -1.47104 -2.85853 
1 2.15948 -0.338023 -3.0533 
1 3.12897 -0.563217 -2.6187 
1 2.88221 0.480338 -2.59792 
1 2.69186 0.447464 -3.63 
1 2.12153 1.59857 -2.3822 
1 3.46813 1.16578 -3.28803 
1 2.65389 -3.19708 -1.58756 
2 2.19393 -1.71682 -1.94064 
1 2.13843 -1.40864 -1.12449 
1 2.18826 -0.838096 -2.04607 
1 3.05111 -1.38759 -1.91165 
1 2.84798 -2.17219 -1.21494 
1 3.03572 -0.84415 -0.935575 
2 1.89112 -0.589933 -1.2665 
1 1.98171 0.170445 -2.06228 
1 2.518 0.0630274 -1.13777 
2 2.95708 -0.516071 -1.73884 
1 3.43422 0.231024 -1.73974 
2 1.99026 0.81953 -1.02232 
1 2.07633 1.72451 -1.07887 
1 3.45965 1.31706 -2.2055 
1 2.62837 1.0084 -1.62001 
1 2.59007 -2.82644 -0.418778 
2 3.35207 -2.28278 -0.374314 
1 2.45114 -3.19756 0.592832 
1 2.98501 -2.29448 0.484921 
1 3.49059 -3.1203 0.0421653 
2 2.0935 -2.20553 -0.713773 
1 2.11884 -1.24041 0.498257 
1 2.70645 -1.65188 -0.283559 
1 2.15511 -0.59391 -0.378435 
2 1.89175 0.590572 0.71444 
1 3.12022 -0.65476 0.151601 
1 2.25912 -0.184048 0.666104 
2 2.64776 0.119841 -0.127565 
1 3.41211 0.167667 -0.56313 
1 3.1627 0.375171 0.567495 
2 1.93196 1.35367 -0.26088 
1 2.6964 0.976888 -0.502794 
1 2.36368 1.30444 0.516107 
1 3.28783 -3.04597 1.2081 
1 2.67237 -2.35362 1.66227 
1 2.21098 -1.40928 1.74512 
2 2.3269 -1.97082 0.954193 
1 3.01379 -1.35621 1.00045 
1 2.70466 -0.421406 1.61899 
1 2.44549 0.648671 1.40816 
1 3.43892 0.430262 1.63828 
1 3.34159 1.3527 0.99219 
1 2.44315 1.67723 1.65736 
2 3.40704 -2.10441 1.23059 
1 3.69696 1.07264 -1.1388 
1 3.46798 -1.89745 -2.90116 
1 3.64821 0.113276 -3.38213 
1 3.6649 -2.81191 -1.03744 
1 3.67524 -0.486766 1.10672 
1 3.61624 -3.69757 -1.61695 
2 3.01064 1.74929 0.0966762 
2 2.67044 -3.66594 1.46843 
1 2.99229 -3.73126 -0.727739 
1 2.28745 1.4295 -3.71298 
1 -3.73209 3.70302 -3.18351 
1 0.100304 1.86853 -2.2106 
2 -0.801924 3.69521 -1.31514 
1 -3.09335 3.63664 -2.31676 
1 -2.00502 2.01021 -2.58896 
2 -2.8868 3.10445 -3.00394 
1 -3.53704 2.50044 -3.21042 
1 -2.47185 2.41357 -3.42246 
1 -2.05723 3.09796 -2.65636 
1 -1.33883 2.37118 -3.41395 
1 -1.07083 2.57055 -2.39516 
2 -1.2538 3.181 -3.05284 
1 -3.57541 2.09581 -1.55025 
2 -0.68786 2.02195 -1.79711 
1 -2.93928 2.58906 -2.26116 
2 -2.46067 3.22396 -1.86305 
1 -2.77326 2.69566 -1.09393 
2 -3.39656 3.02979 -1.61797 
1 -1.16779 3.58261 -2.10247 
1 -1.90126 2.61056 -1.71065 
1 -1.73296 2.46884 -0.674827 
1 -0.910681 2.75924 -1.34368 
1 -3.64997 2.16283 0.185697 
1 -2.48351 2.22962 0.108958 
1 -1.48808 1.87573 0.151015 
1 -3.50387 3.35415 -0.66537 
2 -3.60339 2.47456 -0.688876 
1 -3.04776 3.07183 0.221441 
1 -2.21351 3.35322 -0.38327 
1 -0.999489 3.32626 -0.444436 
1 -1.56362 2.92607 0.423603 
1 -0.541458 2.40584 -0.157873 
1 -0.427109 3.21519 0.520858 
1 -1.83888 1.87491 1.22189 
1 -0.845984 2.25464 0.900696 
1 -2.43493 2.75193 1.08661 
1 -2.88728 3.53354 1.69772 
1 -3.59219 2.79354 1.08137 
2 -1.55469 2.7232 1.30102 
1 -0.772957 3.04682 1.571 
1 -1.82712 3.47809 1.72503 
1 -1.88444 3.27874 -3.70992 
1 -0.42926 3.48591 -2.89134 
1 -0.254174 2.43644 -3.05021 
1 0.562098 3.29811 -3.1699 
1 -0.0765894 2.92565 -2.03796 
1 -0.0263694 2.21316 -1.17258 
1 -0.0682447 3.36637 -1.00203 
1 0.450218 2.83971 -0.272626 
1 0.242891 2.34753 0.673995 
1 0.62641 3.38364 0.660831 
2 0.0667551 3.05556 1.25128 
1 -0.0640093 2.31608 1.71003 
1 1.69658 3.68144 -1.55031 
1 0.740844 2.29068 -3.45715 
1 1.76146 2.25612 -3.12245 
1 0.87906 2.59512 -2.43302 
1 1.7008 3.26346 -2.71753 
1 1.76129 2.47181 -1.84465 
1 0.835116 2.94488 -1.41219 
1 1.29384 2.29788 -0.655034 
1 1.31626 3.42901 -0.561639 
1 1.3917 2.78463 0.303987 
2 0.969209 1.948 1.05457 
1 1.8299 2.30211 1.09459 
1 0.902715 2.71955 1.47791 
2 1.69629 2.96888 1.7737 
1 1.91467 3.42882 1.05256 
1 2.22772 3.45803 -0.0333071 
1 2.95447 2.05438 -2.94135 
2 2.36008 2.51838 -2.49487 
1 3.49881 2.95683 -2.34082 
1 2.69245 3.09295 -3.10851 
1 2.22223 2.87655 -0.946213 
1 3.25438 2.85266 -1.24331 
1 2.55802 3.24708 -1.98976 
1 2.8548 2.12462 -1.85747 
1 2.2356 2.18611 -0.0771763 
1 3.15033 1.9124 -0.756173 
1 3.10568 2.82425 -0.160249 
2 2.30612 2.82853 0.54966 
1 2.90902 2.28491 0.804111 
1 3.01633 3.39499 0.759716 
1 2.59096 2.88384 1.66499 
1 3.49616 3.50383 1.75197 
2 3.70995 2.13398 -2.42259 
2 3.64096 3.48605 0.12825 
1 3.44271 2.07448 1.7616 
1 -3.15812 1.67662 3.69479 
1 -2.4684 -2.30343 2.06614 
1 -0.878848 -3.50968 2.00451 
2 -0.934592 -1.02367 2.20304 
1 -3.30099 1.19973 1.97977 
1 -3.28656 -3.25926 2.42184 
2 -3.07265 -2.44413 2.73081 
1 -2.98898 -3.00636 3.42686 
2 -2.37801 -3.61767 3.34715 
1 -2.22287 -3.1534 2.59159 
1 -1.88711 -2.90324 3.60817 
1 -1.19482 -2.69512 2.58022 
1 -0.878977 -3.26723 3.72137 
1 -3.36238 -2.0272 3.56368 
1 -2.33104 -2.07934 3.10035 
1 -3.13369 -1.60194 2.46265 
1 -2.71595 -1.12206 3.4019 
2 -2.29217 -1.31123 2.62882 
1 -0.97706 -2.13064 3.44234 
1 -1.59027 -1.72111 2.30526 
1 -1.58694 -1.17773 3.2398 
2 -0.684963 -1.22261 3.19995 
1 -0.542636 -1.75927 2.46895 
1 -2.7524 -0.576061 2.4377 
1 -3.37286 -0.230253 3.19085 
2 -2.76956 0.358218 3.48687 
1 -2.7223 0.524764 2.60338 
2 -3.59087 0.387343 2.41221 
1 -2.11257 -0.185837 3.23249 
1 -1.72675 -0.675444 2.30101 
1 -0.822144 -0.38428 2.83111 
1 -1.69647 0.386614 2.39487 
1 -1.25414 0.640495 3.29565 
2 -0.508976 0.184773 3.52548 
1 -0.561956 0.580901 2.41585 
2 -2.87898 1.37981 2.79572 
1 -2.30336 1.11606 3.41384 
1 -3.54936 0.84181 3.1893 
1 -2.00481 1.4722 2.44915 
2 -1.16727 1.17937 2.49193 
1 -1.14389 1.69545 3.18552 
1 -0.143251 -0.657718 3.69284 
1 -0.206757 -2.66166 1.99657 
2 -0.123718 -0.171182 2.17394 
1 0.696196 0.344264 2.10062 
1 -0.319002 -3.64653 2.88799 
2 0.0723527 -2.30303 2.73772 
1 0.0143812 -2.79845 3.44834 
1 0.579972 -3.15684 2.50137 
1 0.544408 -1.79098 2.1756 
1 0.0358499 -1.69861 3.38191 
1 0.0543107 -0.909866 2.68316 
2 0.614015 0.70464 3.46531 
1 0.181669 0.10781 2.99243 
1 -0.216689 1.02915 3.36991 
1 -0.271392 1.60015 2.4739 
2 0.505289 1.62587 3.49877 
2 0.750889 -1.41022 2.93871 
1 0.738442 1.25588 2.76463 
2 1.31079 -1.47007 1.85002 
2 1.36529 -3.11115 2.10846 
1 0.907767 -0.716123 2.10047 
1 1.64011 0.962969 2.15574 
1 0.822539 -3.45984 3.53801 
1 0.880941 -2.28831 3.07162 
1 1.64182 -3.1462 2.93369 
1 1.57929 -2.25172 2.20537 
1 1.59865 -1.28284 2.69567 
1 0.929887 -0.599589 3.24305 
1 1.27025 0.40501 2.99355 
2 1.61449 1.24935 3.01331 
1 2.95738 -0.627567 3.71159 
2 1.85457 0.617479 3.65184 
1 1.89205 -0.16013 2.28381 
1 3.35334 -1.51773 1.99869 
2 2.70039 0.308094 2.18212 
2 2.26158 -2.7805 2.36969 
1 2.63628 -2.86031 3.21659 
1 3.01574 -3.19823 2.24978 
1 1.86421 -2.17403 3.3509 
1 2.05935 -1.20495 3.67719 
1 2.63976 -0.837495 2.65771 
1 2.56349 -1.92372 2.62133 
1 2.94455 -1.82087 3.63238 
1 1.99507 -0.23313 3.34943 
1 2.30491 0.708355 2.89685 
1 3.14434 0.126962 2.9161 
1 2.32137 1.75011 2.72143 
1 3.1529 1.12523 2.38509 
2 3.05252 1.06752 3.29246 
1 3.50618 -3.46791 3.20121 
1 3.51176 -2.37179 2.76536 
1 3.59196 -1.19188 3.0497 
1 3.63818 -0.479309 2.21031 
1 2.04574 -3.69012 2.09623 
1 -3.57408 1.89245 2.7052 
1 -1.41801 3.70706 2.89689 
1 -3.03832 2.47366 1.968 
1 -1.09609 2.02241 2.00052 
1 -1.99963 2.49102 2.0583 
2 -1.29515 3.06699 2.2822 
2 -1.93488 1.94198 3.50622 
1 -2.58865 2.23423 2.9726 
1 -3.49236 3.12783 2.64582 
1 -2.40567 3.25861 2.67049 
2 -3.4282 2.46532 3.35894 
1 -3.00931 3.23006 3.58532 
1 -1.56119 2.62008 3.01231 
1 -0.737566 3.13869 3.62088 
1 -0.552066 2.72957 2.62594 
1 0.189004 3.31448 2.0973 
1 -0.1864 2.11885 3.42497 
1 0.313133 3.08324 3.28533 
1 0.574079 2.3466 2.56882 
1 1.45414 2.00023 2.05635 
1 1.39313 2.07119 3.19727 
1 1.13827 3.38459 2.58259 
1 1.44116 3.09657 3.61905 
1 3.24217 1.93135 3.495 
1 1.98027 2.77666 2.56968 
1 2.37229 2.51237 3.51424 
2 3.16004 3.45386 2.57298 
1 3.03536 2.5722 2.60426 
1 3.35604 3.01295 3.52929 
1 2.48144 3.54699 3.12145 
