ITEM: TIMESTEP
1805
ITEM: NUMBER OF ATOMS
500
ITEM: BOX BOUNDS xy xz yz pp pp pp
-4.4814 3.7345 -0.7469
-3.7345 3.7345 0
-3.7345 3.7345 0
ITEM: ATOMS type x y z 
1 -1.16043 2.40061 -0.213995 
1 0.0925233 0.49613 -1.44364 
1 1.41067 0.43012 -0.161873 
1 -0.20865 -2.37879 0.955027 
1 2.23748 0.903212 -0.550172 
1 2.87568 -0.60204 -2.60035 
1 -0.00251988 -0.516564 -1.08546 
1 -1.53003 -3.38846 -0.0629812 
1 1.89203 -1.4262 -1.07405 
1 2.67843 -0.600111 3.65402 
1 -3.56815 1.81599 1.07619 
1 0.835585 -1.51644 0.219702 
1 -0.603733 0.695582 -0.631544 
1 -1.45946 -3.67777 2.92652 
1 1.8444 2.80706 1.67661 
1 -1.96277 2.46183 -3.38028 
1 2.97291 1.28278 -2.21203 
1 2.14722 -2.46926 -3.18599 
1 1.8538 3.29146 -1.96545 
1 2.56562 -3.1861 -1.51648 
1 -3.52588 0.144949 -1.11417 
1 0.324654 3.73276 1.48716 
1 0.597982 -0.591532 3.22208 
1 -4.14973 2.48503 -3.23318 
1 2.38989 -1.91333 2.64842 
1 -0.925824 -0.998511 -0.186874 
1 1.92228 1.66235 1.64059 
1 1.20781 -1.1051 -2.75465 
1 -1.43407 2.34002 0.873959 
1 -2.04528 1.89491 0.136248 
1 -2.04304 1.43397 -3.36829 
1 -1.18257 -3.65618 0.935323 
1 -3.42853 2.69874 -1.16974 
1 -3.86573 -1.69819 -0.974129 
1 -1.66131 0.717745 3.28543 
1 0.643909 -2.74883 1.50763 
1 1.86294 -0.600649 -0.348351 
1 -0.121443 3.26715 -3.2041 
1 -1.68537 -3.56502 -1.19779 
1 0.988225 -0.469689 0.301252 
1 1.1944 3.31001 1.02499 
1 -0.30902 -2.27945 -2.13633 
1 -0.382786 3.1419 3.22808 
1 -3.07603 -0.589546 2.45018 
1 0.585232 1.57756 -2.61798 
1 -3.40167 -3.36298 2.48361 
1 -0.335307 1.39915 -3.19059 
1 -1.84313 3.2284 -0.543369 
1 1.93269 -0.820215 -2.01151 
1 -2.61717 0.641283 -1.53165 
1 3.31884 -0.523513 2.22582 
1 -1.61084 -3.42112 -3.08648 
1 -0.410705 0.324978 0.343817 
1 -0.288314 -0.859539 2.69573 
1 1.69927 -2.16026 3.38526 
1 -1.49969 3.05194 1.62864 
1 2.45223 -2.35811 -2.20078 
1 -0.140095 3.29881 0.656487 
1 1.21145 2.40946 -1.93339 
1 0.736088 -2.19295 3.04387 
1 2.3719 2.25468 0.836825 
1 -0.502397 -2.15356 -3.24857 
1 3.34598 -0.547555 1.15351 
1 1.63985 1.52464 -2.45911 
1 -0.478119 -3.1018 0.238448 
1 1.37301 -3.457 0.400432 
1 3.17969 -2.71993 -3.33594 
1 2.72882 -1.78967 3.68644 
1 1.89127 -0.356904 -3.06362 
1 1.53077 1.71928 -1.10488 
1 -2.04683 -0.286478 -1.54847 
1 2.53939 -2.39559 1.68618 
1 -3.86942 -0.749389 -1.60216 
1 0.569292 -0.769688 2.10949 
1 2.99198 -3.21796 2.31476 
1 0.291175 -1.3738 1.13606 
1 -2.78584 -1.84447 -1.42415 
1 -0.918899 1.47818 1.30304 
1 -2.46868 1.45463 2.43269 
1 -0.195622 2.79213 -0.305166 
1 -1.17476 3.30255 0.333694 
1 -3.34394 -1.63034 2.47618 
1 1.87647 0.71882 2.8562 
1 -1.23101 -2.02641 3.40579 
1 0.447629 -1.89481 -2.7512 
1 3.52172 -2.82196 -1.0273 
1 2.60958 -3.35975 -2.67615 
1 -4.16055 2.05862 -1.55529 
1 -0.944549 -3.48364 1.99671 
1 2.76818 2.91243 -2.37034 
1 0.647317 -3.42622 -1.22053 
1 -0.721461 -1.7567 2.4451 
1 -3.6322 -2.45622 1.83967 
1 1.09581 0.201226 1.41525 
1 1.02971 -1.97607 -0.727878 
1 -2.82137 1.25931 0.466361 
1 -2.26675 2.93909 0.395848 
1 2.82706 2.17611 1.85324 
1 -1.78288 -1.68893 2.34138 
1 -3.36591 0.75581 -3.21701 
1 -3.08367 -1.62233 -2.99267 
1 1.67434 -2.48511 -1.46924 
1 -0.0777183 1.24931 0.71174 
1 3.39216 -2.80551 -2.20375 
1 -1.28131 -0.149861 1.75463 
1 -3.42622 -3.62408 0.828478 
1 -3.08088 3.22096 2.67305 
1 -0.180217 -1.68208 3.34907 
1 1.79948 3.5834 3.14732 
1 2.04748 0.648262 1.38894 
1 0.980091 3.34342 -2.71138 
1 -3.95125 0.815214 3.17271 
1 2.83053 -1.41748 -1.88018 
1 -2.5425 0.0962233 -0.603662 
1 -2.94345 3.32138 -0.438729 
1 3.1575 -1.55822 1.99088 
1 1.82052 1.41376 -3.73445 
1 -2.04011 -0.656647 2.28321 
1 3.03971 0.143062 -0.506561 
1 3.62749 -3.6896 -3.11639 
1 -1.9942 1.60789 -1.71242 
1 2.77068 0.149851 2.84457 
1 2.53338 -2.81915 3.28002 
1 -0.37883 2.26052 0.643153 
1 0.975529 2.05403 2.01195 
1 -0.954092 -3.07434 3.65568 
1 3.20511 -3.10023 1.25392 
1 1.64204 -0.228075 3.33814 
1 -3.0863 2.7754 1.09405 
1 -3.6202 1.635 -2.69905 
1 -2.64196 -3.51389 -3.21888 
1 0.823834 2.05326 3.17883 
1 1.51855 3.3667 -0.0395686 
1 -2.54908 2.48231 2.05995 
1 -0.205516 0.134439 3.0096 
1 -2.62514 3.28831 -3.72223 
1 1.33896 -1.28905 2.73564 
1 1.23318 2.33268 -3.04846 
1 -2.57278 0.0119086 -2.43506 
1 -1.10168 3.45301 -2.8357 
1 -0.645608 1.05856 3.34899 
1 0.698685 2.26507 -0.652983 
1 -0.740029 -1.4897 0.802794 
1 1.02182 0.991791 -1.76879 
1 -0.750445 1.65836 2.45539 
1 -0.546416 3.40783 2.04582 
1 -0.148221 -3.50546 1.2073 
1 2.3712 2.07314 -3.00198 
1 -1.6854 2.61072 -2.36332 
1 2.7743 -1.42824 1.00193 
1 -3.72969 -0.0987272 0.298987 
1 1.43212 -2.09493 -2.44591 
1 -3.68903 1.66521 3.69022 
1 1.70951 -2.2964 0.233205 
1 2.34084 -0.839034 2.65007 
1 -2.9855 -1.12268 3.42261 
1 2.22251 -1.45444 -2.81803 
1 2.35041 -0.447713 1.61873 
1 1.89222 -3.43344 -3.52883 
1 -2.59885 2.09066 -2.52618 
1 -3.63778 3.51577 1.73517 
1 -1.51768 -2.52375 -0.680502 
1 1.63801 0.183055 -2.07356 
1 -0.93474 1.19182 -1.55211 
1 1.09165 -2.60008 -3.33226 
1 -1.19803 -1.25469 -3.30341 
1 0.403126 1.82078 -1.54767 
1 -2.29338 0.0118389 1.42745 
1 1.95315 1.27108 0.477956 
1 -1.51502 1.58029 -0.746825 
1 -2.332 0.42902 -3.3785 
1 -1.45333 -0.943222 -2.17823 
1 -1.66879 0.588127 -2.17606 
1 -4.141 3.00291 2.63458 
1 2.65636 1.14585 2.30173 
1 -2.60489 1.29274 -0.684167 
1 3.05866 0.229999 -1.7647 
1 0.0148042 3.71864 -2.24695 
1 0.220616 2.28037 -3.42317 
1 -2.21907 -1.63698 -2.35215 
1 -2.0431 0.397348 2.389 
1 1.84556 -1.25554 0.551183 
1 -4.19263 2.17113 0.200975 
1 -1.67571 -1.66437 -1.36667 
1 3.37978 -3.13562 0.0672992 
1 0.165077 2.91348 -1.3763 
1 1.07265 -1.46949 -1.70364 
1 -0.680811 -2.0389 -1.11748 
1 -2.78014 -2.93906 1.28152 
1 0.531844 -3.09443 2.51702 
1 -3.08099 0.515967 2.59819 
1 0.0228182 -1.4252 -1.61334 
1 1.99874 -1.45513 1.74972 
1 -1.59438 -1.12037 1.40304 
1 0.0985831 1.52611 1.70996 
1 2.79112 -2.35567 0.523475 
1 3.22447 -1.81073 -2.82928 
1 0.342725 0.121714 -0.37731 
1 -1.9469 3.65102 -2.1733 
1 -3.08371 2.23991 0.154215 
1 2.42545 -2.89848 -0.396173 
1 -2.74699 0.216407 0.452871 
1 -0.40122 1.82143 -2.2197 
1 2.80539 -0.685997 0.194748 
1 2.16942 0.993699 -1.61861 
1 -3.13112 2.19585 2.96519 
1 0.604849 3.43437 -0.550989 
1 -2.57224 3.4687 1.72953 
1 -0.923088 -0.962905 -1.24511 
1 -2.39305 1.89053 1.18911 
1 2.71284 3.06371 3.54105 
1 -0.66497 2.13458 3.41997 
1 0.0314896 -1.49029 -0.533261 
1 -3.54607 0.840371 -1.97629 
1 3.36442 -2.34621 2.7928 
1 2.56783 1.86649 -0.793583 
1 -3.60695 2.58008 -2.28652 
1 -0.727431 2.86412 -1.99157 
1 -2.60916 1.06313 -2.51865 
1 -3.10169 -2.8517 -1.80795 
1 1.49955 0.657216 -2.98957 
1 -1.18426 -0.321824 2.83656 
1 1.68954 -2.86612 1.27583 
1 2.17322 -0.00515938 -1.16915 
1 -4.1943 3.29265 -0.689268 
1 0.672171 2.69573 0.3112 
1 -0.943112 0.628141 2.39402 
1 2.76799 -0.882303 -0.907835 
1 -0.458434 -1.28501 -2.55571 
1 1.51174 -0.217117 2.28612 
1 -1.89775 -0.865626 -0.615614 
1 0.867442 0.40703 2.95805 
1 0.259142 -3.14276 -3.01245 
1 0.495877 0.442214 -2.51703 
1 -2.33489 -3.19184 2.53378 
1 -0.901793 -0.463835 0.80067 
1 -1.25245 0.687226 -3.21475 
1 0.321992 -0.628876 -3.04414 
1 -2.77469 -3.71739 -1.30587 
1 -2.20091 -3.45554 -2.17235 
1 -3.69734 3.23456 3.56884 
1 -0.144526 -0.373522 -2.12541 
1 1.21215 -1.92117 1.14937 
1 -2.14048 -2.04135 1.15044 
1 -2.74834 3.11971 -2.67813 
1 -1.63736 1.77631 3.15771 
1 1.03339 1.23824 1.15316 
1 -3.71459 3.09589 0.235554 
1 2.51129 0.434118 -2.64168 
1 0.0557228 2.41337 2.51976 
1 2.29523 2.05607 -1.8839 
1 3.03719 0.372329 1.68426 
1 -1.29097 -2.07551 -2.50602 
1 -0.241136 0.328727 -3.3619 
1 2.35993 3.35608 0.756847 
1 -3.56372 -2.48897 0.731697 
1 -1.34613 -2.58196 0.63396 
1 3.29353 0.114676 -3.3597 
1 2.32201 2.70205 2.62331 
1 -2.05879 -2.52632 -1.7729 
1 2.5687 2.81615 -1.26008 
1 2.40314 -3.30486 0.625376 
1 2.98154 1.18766 -3.29401 
1 -0.0120357 -0.761594 0.23409 
1 -1.55548 -0.27011 -3.6543 
1 -3.59189 2.41726 1.96691 
1 -1.86618 -1.1187 3.23968 
1 -3.6174 1.76181 -0.635147 
1 -3.30234 -2.69835 -2.92731 
1 -1.99141 -2.82782 3.57364 
1 0.607965 -2.44352 -1.65054 
1 -1.06234 -2.84646 -1.67539 
1 -2.90254 -1.69377 0.458701 
1 2.32405 0.450982 -3.68918 
1 1.07902 0.093602 -1.11355 
1 0.145994 -2.57981 -0.604463 
1 3.06558 1.1702 0.0160766 
1 1.34357 -2.96094 -0.548784 
1 3.2212 1.04501 -1.10677 
1 0.783935 0.152207 -3.51768 
1 0.910921 3.67916 -1.57165 
1 1.63293 2.17283 -0.0917728 
1 2.6893 1.96952 3.44701 
1 -2.45898 -0.169568 3.21628 
1 -1.03873 1.35086 0.2206 
1 -0.548992 0.69145 -2.39303 
1 -0.323153 -2.65964 1.98145 
1 -3.75369 1.15558 1.97385 
1 -2.17575 2.67413 3.03359 
1 2.26898 3.69893 -0.713212 
1 -3.759 -0.766157 -0.478979 
1 -1.96098 0.828479 0.0189375 
1 0.777533 1.23313 -3.61369 
1 -4.09184 1.8324 2.70121 
1 0.274792 0.302105 2.09427 
1 -2.35923 -1.79949 -0.470467 
1 -0.655177 -3.28123 -0.808182 
1 -2.79977 -0.774529 -0.0203266 
1 1.16154 1.00515 2.14796 
1 0.917665 -0.912421 -0.710682 
1 -0.224303 -3.50843 -1.85605 
1 -2.6736 -1.30953 1.7204 
1 -3.07803 2.4057 -3.41681 
1 -1.70898 -1.54461 0.319094 
1 1.44122 -2.27161 2.19623 
1 1.28894 2.21466 0.984009 
1 -1.19261 2.74887 2.63926 
1 -2.98626 -0.943268 -2.1724 
1 -1.15422 -2.10952 1.56381 
1 0.248266 1.23963 2.73426 
1 -3.10803 -0.290509 -3.36113 
1 0.768151 3.09923 3.575 
1 2.486 2.77844 -0.154016 
1 -3.03319 -2.98384 3.41583 
1 -3.63981 -1.5037 1.17248 
1 0.622022 0.506061 0.530494 
1 -1.48537 3.28923 3.65146 
1 -0.517365 -0.924261 1.6918 
1 -1.54617 2.54777 -1.28496 
1 1.52378 2.87353 -0.994054 
1 0.406431 3.46405 2.53103 
1 -3.62654 -1.82688 -2.01386 
1 -1.93773 -0.497154 0.543684 
1 3.58144 -3.70231 -1.63756 
1 -2.36022 -2.63464 0.254581 
1 -3.03721 -3.37889 -0.133503 
1 -3.01777 -0.646103 1.00411 
1 -0.47714 -0.643461 3.71207 
1 0.857232 -0.487943 -1.93049 
1 -2.51991 -2.79887 -0.858844 
1 0.181897 -0.275687 1.1612 
1 0.335656 2.6545 1.39206 
1 2.04583 -3.59761 2.0343 
1 -2.89672 -0.844666 -1.08339 
1 2.66242 -2.17 -1.14323 
1 -2.08085 -1.79514 -3.43574 
1 -3.56139 -2.03837 3.63189 
1 -1.39452 0.489253 0.832912 
1 -2.21699 -0.804295 -3.02961 
1 -0.834385 3.28549 -0.979361 
1 0.790194 1.56911 0.190398 
1 1.75242 2.51015 3.51778 
1 -0.912751 0.0775241 -1.58425 
1 -0.843688 2.41046 -3.03978 
1 -0.172322 1.70242 -0.301944 
1 -3.70039 0.78214 0.86855 
1 -2.47248 2.86912 -1.65758 
1 -1.77037 -2.95968 1.57829 
1 1.24398 -0.828499 1.29994 
1 -3.89284 -0.989729 -3.38075 
1 -3.72862 -0.23837 3.19977 
1 -0.743004 -3.02224 -2.72418 
1 -1.31034 0.00751768 -0.149291 
1 1.26554 2.85733 2.61243 
1 -1.3421 -2.66378 2.55984 
1 -3.32167 -2.34966 -0.308375 
1 2.72245 3.42651 1.80671 
1 0.693871 1.09576 -0.748585 
1 -1.62456 2.01566 1.97491 
1 -3.63895 -0.123329 -2.44153 
1 3.45758 -3.34637 3.33642 
1 -3.44383 0.761243 -0.258734 
1 -1.79932 1.03998 1.62112 
1 -0.575204 2.1364 -1.17287 
1 1.9064 -0.178688 0.682744 
1 0.412802 -3.54529 -0.170498 
1 1.80017 1.77547 2.70561 
1 -2.26005 -3.67855 0.701125 
1 -2.47503 2.34379 -0.739607 
1 -0.50448 0.501684 1.41877 
1 -3.40952 0.0719327 1.67793 
1 1.60956 -3.10664 -2.41378 
1 -0.643142 2.40605 1.70047 
1 -3.88362 3.60079 -2.34533 
1 2.88461 1.34504 1.1312 
1 0.785001 -1.45228 -3.67787 
1 1.97288 3.16022 -3.13811 
1 -1.67027 0.57946 -1.01897 
1 -2.24473 -2.60355 -2.82346 
1 3.48353 -1.64338 0.126356 
1 0.0112637 -2.82389 3.45345 
1 -0.726386 -2.0885 -0.0667996 
1 2.4674 -1.66886 -0.217541 
1 0.85198 -3.45357 3.55002 
1 -1.35236 1.55845 -2.59382 
1 0.365364 -1.85103 2.10828 
1 1.58707 -3.10743 2.89961 
1 1.81482 -1.18269 3.70165 
1 -2.78251 1.1624 3.40899 
1 -0.931704 -0.27176 -2.80315 
1 -3.08232 1.75107 -1.60842 
1 -2.60109 -2.29835 2.08313 
1 0.660811 -2.56685 0.347888 
1 0.261749 2.62162 -2.40677 
1 -4.19539 2.78698 1.11633 
1 3.33473 -1.2302 3.03764 
1 -0.357179 -3.60536 2.85723 
1 -2.83577 0.949588 1.51375 
1 2.80078 0.345848 0.618998 
1 -2.54817 -2.05366 3.10579 
2 -0.079062 -2.3157 2.73885 
2 0.343125 0.726561 1.33065 
2 -3.34349 1.03133 -1.11929 
2 1.44986 0.605536 3.61269 
2 2.25456 0.288674 2.15699 
2 -2.92195 1.53767 -3.2375 
2 2.70785 -0.555733 -1.71574 
2 -1.61995 3.48547 -1.37187 
2 -3.50794 -3.30703 1.63249 
2 -3.22793 -2.4995 2.68709 
2 1.74843 2.78301 0.53827 
2 -3.57913 -0.955259 0.426758 
2 -2.87376 -2.1915 -2.31999 
2 3.14572 -2.32067 -0.358658 
2 -1.54541 -2.92031 -2.38277 
2 0.131175 1.12717 -2.03261 
2 2.94807 3.50388 0.0920331 
2 2.26479 0.140614 -0.0745732 
2 -0.00137485 -3.68362 -3.68915 
2 0.0550656 1.6337 3.48769 
2 -2.23387 0.747262 0.901522 
2 -3.04343 1.75103 1.81855 
2 1.88899 2.57442 -2.47671 
2 1.29154 -3.12584 2.06133 
2 -3.55448 3.09972 -3.02516 
2 -1.77658 -0.0137662 -2.83117 
2 -1.94553 3.26616 -3.0167 
2 -3.20429 3.22891 -1.90873 
2 -1.40209 -1.65274 -0.530925 
2 -0.893319 -1.6126 -1.85785 
2 -2.45834 1.98322 3.51434 
2 -2.37361 -3.59329 3.3264 
2 1.97048 -1.69275 -1.89673 
2 0.412975 -1.12562 -2.32974 
2 -1.41518 -2.50681 -3.27615 
2 0.123826 0.916339 -0.0848561 
2 -0.850986 -2.91597 1.30185 
2 1.47114 0.585546 0.710968 
2 0.608162 -3.30643 0.812998 
2 1.49722 -1.8153 -3.26459 
2 -4.00072 2.43882 3.34365 
2 -0.913592 0.232107 3.52089 
2 -3.14579 0.362834 3.4861 
2 1.11824 -3.47613 -3.05439 
2 -3.92151 0.326431 2.41612 
2 -2.32811 -1.20188 0.89854 
2 -0.152196 1.30181 -1.10155 
2 -0.0118854 -1.72755 0.345802 
2 3.25388 -2.15769 1.24874 
2 0.447486 1.91557 0.938365 
2 -3.49171 -0.864301 1.73754 
2 -3.00197 -2.07285 1.31141 
2 -2.75674 -2.33634 -3.52294 
2 -0.0557474 -1.36242 -3.32405 
2 -3.8352 -1.06739 -2.46408 
2 -1.67503 1.46828 0.830013 
2 -1.59673 1.21802 2.47516 
2 -0.482806 -0.226019 -0.378901 
2 -4.07529 0.648696 -2.66113 
2 1.89995 -2.22901 -0.649817 
2 0.457905 -1.36309 2.83317 
2 -0.504928 -0.146223 2.1891 
2 3.10428 2.10996 -2.4447 
2 2.79957 -3.50247 -3.54894 
2 1.09399 -0.17525 -2.72469 
2 -4.22231 2.42112 -0.704769 
2 -3.34291 1.35586 2.75206 
2 -1.20294 -0.994132 2.24355 
2 1.53823 -0.637217 -1.26268 
2 -3.62168 1.49705 0.236826 
2 2.21797 -2.76508 2.41235 
2 0.212866 0.717336 3.47211 
2 1.56711 -1.43683 -0.259288 
2 2.09043 -2.02301 1.00854 
2 0.799489 -2.71369 -2.47531 
2 2.63361 1.08617 3.22228 
2 -1.16147 1.5606 -3.52813 
2 -0.348277 -1.7928 1.60596 
2 -1.38193 -0.268545 -0.958999 
2 1.11758 -1.46334 1.90098 
2 1.48385 1.3211 -0.286062 
2 -3.20457 -1.46942 -0.400541 
2 2.61234 3.53091 2.70177 
2 -0.203793 -2.75774 -1.39262 
2 -4.11564 3.01867 -1.65051 
2 1.14101 1.25096 3.01576 
2 0.347298 -2.18863 -3.5681 
2 1.13784 -0.657617 -3.52524 
2 -2.28261 -1.11499 -1.65374 
2 2.46092 1.85389 0.0625699 
2 0.934605 3.09144 1.8424 
2 -1.17539 2.02198 -1.86192 
2 1.52368 0.818415 -1.05203 
2 -0.823169 3.0002 1.08759 
2 -0.962196 -1.19364 3.18976 
2 -2.53844 -1.29556 2.63721 
2 -2.97699 -0.196665 -1.69253 
2 -2.21875 2.75463 1.26232 
2 1.91511 3.68956 1.4388 
2 -1.98803 3.1683 2.33683 
