ITEM: TIMESTEP
2389
ITEM: NUMBER OF ATOMS
500
ITEM: BOX BOUNDS xy xz yz pp pp pp
-3.7345 3.7345 0
-3.7345 3.7345 0
-3.7345 3.7345 0
ITEM: ATOMS type x y z 
1 -0.582278 2.52514 -0.31408 
1 0.515644 0.529387 -1.45084 
1 1.86609 0.446325 -0.184193 
1 -0.109041 -2.47743 0.90674 
1 2.71362 0.991656 -0.456575 
1 3.14046 -0.568598 -2.62758 
1 0.256045 -0.500994 -1.06858 
1 -1.59532 -3.35367 0.0380736 
1 2.16848 -1.39317 -1.11761 
1 2.95252 -0.63185 3.72378 
1 -3.2416 1.77491 1.02665 
1 1.13888 -1.41536 0.225253 
1 -0.166306 0.715838 -0.663513 
1 -1.41891 3.69309 2.86986 
1 2.46549 2.81253 1.65559 
1 -1.32881 2.36836 -3.46759 
1 3.44091 1.32663 -2.21091 
1 2.40546 -2.52977 -3.24591 
1 2.48727 3.28256 -1.97536 
1 2.66377 -3.14722 -1.62515 
1 -3.12291 0.241705 -0.997092 
1 0.957279 -3.62072 1.57137 
1 0.928318 -0.614341 3.24175 
1 -3.54542 2.51449 -3.19756 
1 2.5944 -2.01283 2.61833 
1 -0.626336 -0.891558 -0.247228 
1 2.40819 1.67125 1.66935 
1 1.50324 -1.15689 -2.75788 
1 -0.543536 2.15032 0.698883 
1 -1.40386 1.90557 0.0914503 
1 -1.60067 1.38638 -3.36095 
1 -1.21172 -3.67312 0.9741 
1 -2.82194 2.73407 -1.08589 
1 -3.62108 -1.70554 -1.01742 
1 -1.29708 0.610589 3.25776 
1 0.76795 -2.58891 1.48934 
1 2.18759 -0.588343 -0.374375 
1 0.56515 3.33997 -3.11423 
1 -1.67064 -3.61799 -1.2311 
1 1.33574 -0.377554 0.307111 
1 1.8356 3.41975 1.0544 
1 -0.12555 -2.31364 -2.15426 
1 0.290026 3.09868 3.34879 
1 -2.77025 -0.594422 2.4489 
1 1.07233 1.51486 -2.61646 
1 -3.20066 -3.41033 2.46824 
1 0.114947 1.36788 -3.16843 
1 -0.97148 3.47775 -0.501557 
1 2.23993 -0.847858 -2.03431 
1 -2.1965 0.613212 -1.46218 
1 3.63034 -0.542042 2.20533 
1 -1.56582 -3.49024 -3.04206 
1 0.0394089 0.347986 0.401465 
1 0.0401982 -0.919339 2.70096 
1 1.89395 -2.19371 3.35679 
1 -0.812878 2.92071 1.46822 
1 2.74593 -2.33653 -2.27844 
1 0.666089 3.42735 0.670386 
1 1.76927 2.41442 -1.87304 
1 0.896083 -2.31702 3.11769 
1 2.8784 2.25144 0.78774 
1 -0.288638 -2.13819 -3.1942 
1 3.67572 -0.53128 1.07698 
1 2.19389 1.54244 -2.43145 
1 -0.509251 -3.23667 0.26074 
1 1.37649 -3.26597 0.476097 
1 3.44384 -2.78306 -3.47908 
1 2.98275 -1.8325 3.63138 
1 2.14782 -0.351519 -3.05432 
1 2.05177 1.71003 -1.05685 
1 -1.55657 -0.263379 -1.55693 
1 2.6597 -2.3859 1.61379 
1 -3.55128 -0.713747 -1.60872 
1 0.895939 -0.790116 2.11871 
1 3.15897 -3.1549 2.25999 
1 0.599466 -1.53077 1.15371 
1 -2.53944 -1.63401 -1.26779 
1 -0.514516 1.37972 1.42109 
1 -2.06957 1.5591 2.42282 
1 0.41761 2.89834 -0.259213 
1 -0.388313 3.19772 0.481197 
1 -3.12311 -1.61841 2.43823 
1 2.25954 0.685069 2.89773 
1 -0.978073 -2.11221 3.42795 
1 0.695326 -1.91984 -2.71749 
1 3.61007 -2.97444 -0.845572 
1 2.92721 -3.35933 -2.67052 
1 -3.59684 2.1105 -1.57764 
1 -0.861562 -3.60517 1.97532 
1 3.44144 2.98334 -2.34959 
1 0.680071 -3.37343 -1.20593 
1 -0.517472 -1.7811 2.45582 
1 -3.47799 -2.52186 1.84751 
1 1.45684 0.151356 1.33082 
1 1.29552 -1.90657 -0.745945 
1 -2.26457 1.46558 0.708051 
1 -1.49906 2.958 0.332836 
1 3.4085 2.1158 1.76402 
1 -1.56049 -1.71663 2.29856 
1 -2.98559 0.752388 -3.1796 
1 -2.79092 -1.5868 -3.0106 
1 1.88666 -2.45456 -1.49673 
1 0.33042 1.34054 0.747147 
1 3.6829 -2.76367 -2.07914 
1 -0.931762 -0.184743 1.78732 
1 -3.38606 -3.70603 0.859539 
1 -2.42371 3.29137 2.68873 
1 0.0460239 -1.72101 3.36796 
1 2.48065 3.49797 3.20935 
1 2.40025 0.627695 1.4219 
1 1.66829 3.24504 -2.70948 
1 -3.59426 0.856732 3.15813 
1 3.16043 -1.4039 -1.93006 
1 -1.94241 0.0537631 -0.522781 
1 -2.24031 3.40602 -0.426313 
1 3.34497 -1.58721 2.01969 
1 2.22307 1.41231 -3.71058 
1 -1.72989 -0.643837 2.31367 
1 3.38608 0.149938 -0.600114 
1 3.72675 3.63835 -3.21452 
1 -1.49197 1.5731 -1.74729 
1 3.1307 0.104765 2.9105 
1 2.69363 -2.90968 3.22511 
1 0.483806 2.38738 0.659976 
1 1.38831 1.94902 2.06175 
1 -0.900311 -3.22219 3.6786 
1 3.28658 -3.11627 1.20159 
1 1.98048 -0.246413 3.34784 
1 -2.49711 2.56355 1.00306 
1 -3.11129 1.66073 -2.66523 
1 -2.61697 -3.51735 -3.22588 
1 1.36142 2.07867 3.21778 
1 2.16058 3.55498 0.0153063 
1 -2.0131 2.59872 1.95763 
1 0.15525 0.100727 3.00057 
1 -1.92097 3.26704 3.72208 
1 1.60685 -1.34395 2.70195 
1 1.72492 2.23621 -3.09952 
1 -2.24183 0.0111337 -2.37977 
1 -0.465197 3.50104 -2.94271 
1 -0.272329 1.03143 3.37843 
1 1.21209 2.27723 -0.668275 
1 -0.422501 -1.46768 0.765286 
1 1.51833 1.02673 -1.73712 
1 -0.255113 1.6182 2.47312 
1 0.166067 3.3214 2.05112 
1 -0.107158 -3.53215 1.22611 
1 2.93137 2.11645 -2.98525 
1 -1.09597 2.59151 -2.41292 
1 3.07185 -1.42864 0.992136 
1 -3.35316 -0.0060979 0.153244 
1 1.7131 -2.15888 -2.49116 
1 -3.19377 1.66348 3.69966 
1 1.88787 -2.22597 0.136413 
1 2.63341 -0.884323 2.68072 
1 -2.67915 -1.11173 3.41248 
1 2.52276 -1.47003 -2.86842 
1 2.69536 -0.469245 1.63431 
1 2.00889 -3.48882 -3.45491 
1 -2.00414 2.0527 -2.60455 
1 -2.94433 3.28385 1.71516 
1 -1.26748 -2.52648 -0.617334 
1 1.97669 0.153034 -2.08548 
1 -0.389083 1.21794 -1.59049 
1 1.30542 -2.64926 -3.35082 
1 -0.934634 -1.29141 -3.31564 
1 0.884778 1.83171 -1.57174 
1 -1.95587 -0.0842031 1.40931 
1 2.33948 1.28762 0.536153 
1 -0.917917 1.70714 -0.843542 
1 -1.95744 0.405198 -3.33971 
1 -1.23176 -1.02309 -2.2419 
1 -1.25253 0.561995 -2.21117 
1 -3.50774 2.98436 2.61362 
1 3.07643 1.10763 2.38081 
1 -2.01952 1.49855 -0.786298 
1 3.455 0.237919 -1.74749 
1 0.901967 -3.6133 -2.22758 
1 0.694093 2.28991 -3.45254 
1 -2.08643 -1.7296 -2.2433 
1 -1.70241 0.458747 2.30162 
1 2.15623 -1.23736 0.522638 
1 -3.70523 2.18988 0.121846 
1 -1.40176 -1.74568 -1.4035 
1 3.35159 -3.39754 0.119692 
1 0.895264 2.99366 -1.45327 
1 1.35256 -1.5196 -1.75381 
1 -0.420529 -2.04757 -1.13203 
1 -2.68465 -3.1297 1.45608 
1 0.60772 -3.09241 2.48063 
1 -2.74001 0.523547 2.59844 
1 0.302103 -1.4462 -1.62187 
1 2.2267 -1.42779 1.78593 
1 -1.33515 -1.0619 1.34382 
1 0.539629 1.2969 1.77428 
1 3.11667 -2.35753 0.426744 
1 3.53819 -1.85084 -2.87725 
1 0.714636 0.152834 -0.400782 
1 -1.16576 3.63169 -2.13806 
1 -2.41238 2.21015 -0.0375444 
1 2.61721 -2.80987 -0.407421 
1 -2.3876 0.225056 0.485852 
1 0.0676014 1.90432 -2.24487 
1 3.16293 -0.656413 0.130591 
1 2.64677 1.0006 -1.59487 
1 -2.63865 2.26981 2.98244 
1 1.26513 3.46754 -0.552291 
1 -1.90839 3.63702 1.81701 
1 -0.668477 -0.972423 -1.31762 
1 -1.52114 2.16906 1.10908 
1 3.33382 2.94455 3.5181 
1 -0.267978 2.15831 3.39396 
1 0.294913 -1.44699 -0.549849 
1 -3.11183 0.778996 -1.98848 
1 3.61332 -2.39728 2.85539 
1 3.12326 1.92913 -0.748048 
1 -2.95834 2.62189 -2.27147 
1 -0.0814722 2.95634 -2.08953 
1 -2.19029 1.05012 -2.49043 
1 -3.01127 -2.59588 -1.3737 
1 1.83856 0.724488 -2.95197 
1 -0.842224 -0.367222 2.84678 
1 1.82989 -3.02759 1.48804 
1 2.52082 0.0291487 -1.17491 
1 -3.62757 3.3849 -0.609015 
1 1.40982 2.80358 0.245631 
1 -0.578321 0.60613 2.4073 
1 3.07807 -0.884572 -0.946804 
1 -0.18587 -1.27521 -2.54266 
1 1.84481 -0.19922 2.27396 
1 -1.60127 -0.970222 -0.709262 
1 1.22844 0.397667 3.00055 
1 0.352109 -3.03864 -2.9909 
1 0.899787 0.440736 -2.45936 
1 -2.2056 -3.08987 2.59618 
1 -0.550439 -0.432192 0.804225 
1 -0.857192 0.651828 -3.2369 
1 0.626641 -0.669248 -3.06481 
1 -2.86862 -3.65746 -1.25847 
1 -2.21381 -3.43849 -2.15573 
1 -3.03934 3.2468 3.55204 
1 0.202783 -0.369439 -2.12755 
1 1.58843 -2.01003 1.13578 
1 -1.91283 -1.94079 1.09559 
1 -2.08751 3.11566 -2.6818 
1 -1.17433 1.65652 3.15629 
1 1.46602 1.23758 1.18299 
1 -3.01899 3.01922 0.174639 
1 2.86242 0.496988 -2.59161 
1 0.537273 2.38805 2.58734 
1 2.83114 2.15541 -1.89622 
1 3.39046 0.361261 1.66407 
1 -1.14597 -2.0795 -2.50679 
1 0.130008 0.264989 -3.36128 
1 2.91454 3.36305 0.804787 
1 -3.3759 -2.60205 0.720723 
1 -1.20324 -2.52391 0.582428 
1 3.63738 0.129399 -3.39789 
1 2.94785 2.59352 2.60158 
1 -1.96781 -2.58751 -1.62533 
1 3.19878 2.85477 -1.24683 
1 2.40665 -3.08949 0.631188 
1 3.42762 1.16525 -3.2801 
1 0.316262 -0.719429 0.20377 
1 -1.23701 -0.316599 -3.6407 
1 -2.96038 2.17036 1.95369 
1 -1.58006 -1.16252 3.22845 
1 -3.12847 1.78068 -0.680222 
1 -3.13828 -2.62279 -2.91365 
1 -1.91301 -2.88851 3.61083 
1 0.83604 -2.45183 -1.71489 
1 -0.93601 -2.83288 -1.64398 
1 -2.72879 -1.67111 0.462322 
1 2.65561 0.429237 -3.62295 
1 1.46526 0.158466 -1.11309 
1 0.440972 -2.48804 -0.671436 
1 3.70771 1.12394 -0.0335115 
1 1.51951 -2.94953 -0.582169 
1 3.67528 1.09091 -1.14591 
1 1.1685 0.125048 -3.46471 
1 1.71408 -3.6441 -1.45237 
1 2.20565 2.14122 -0.0779005 
1 3.16236 1.87116 3.46298 
1 -2.12702 -0.141187 3.20437 
1 -0.580859 1.20941 0.169084 
1 -0.154551 0.636403 -2.40802 
1 -0.228826 -2.71724 1.96312 
1 -3.41545 1.14416 1.99383 
1 -1.58597 2.60878 2.94529 
1 2.80558 3.70747 -0.797628 
1 -3.40648 -0.765662 -0.557134 
1 -1.6359 0.885952 0.0878445 
1 1.15903 1.22031 -3.64993 
1 -3.62727 1.8959 2.71348 
1 0.694597 0.265601 2.0908 
1 -2.10271 -1.9036 -0.357738 
1 -0.391591 -3.13621 -0.785449 
1 -2.45946 -0.803891 -0.0721615 
1 1.58616 0.908653 2.14974 
1 1.21839 -0.844607 -0.734519 
1 -0.124926 -3.44775 -1.95176 
1 -2.376 -1.23798 1.70856 
1 -2.50424 2.41523 -3.43857 
1 -1.36163 -1.49632 0.261295 
1 1.56421 -2.33997 2.25262 
1 1.77841 2.24952 1.03839 
1 -0.563187 2.81427 2.59219 
1 -2.68498 -0.900855 -2.17126 
1 -0.925564 -2.05169 1.506 
1 0.713326 1.27834 2.80065 
1 -2.76085 -0.277213 -3.38069 
1 1.42013 3.11407 3.65614 
1 2.97798 2.85302 -0.160198 
1 -3.01904 -2.93613 3.42852 
1 -3.35422 -1.59361 1.28418 
1 1.05993 0.644087 0.441824 
1 -0.782019 3.17104 3.58455 
1 -0.203297 -0.999642 1.69345 
1 -0.916254 2.84483 -1.3968 
1 2.12629 2.85571 -0.927974 
1 1.08721 3.43765 2.61517 
1 -3.2679 -1.79236 -2.04967 
1 -1.56753 -0.454325 0.439552 
1 3.5482 -3.70478 -1.61166 
1 -2.33242 -2.70955 0.476655 
1 -3.02915 -3.3833 -0.0738789 
1 -2.7502 -0.658217 0.939113 
1 -0.187391 -0.682436 3.70989 
1 1.18295 -0.512943 -1.84814 
1 -2.27714 -2.92957 -0.659183 
1 0.533856 -0.358113 1.1699 
1 0.966397 2.78573 1.53239 
1 2.24665 -3.71591 2.213 
1 -2.5107 -0.591276 -1.16217 
1 2.91076 -2.17116 -1.21299 
1 -1.83871 -1.83933 -3.45657 
1 -3.33985 -1.94443 3.64544 
1 -1.04234 0.512068 0.913916 
1 -1.9435 -0.853721 -3.02286 
1 -0.0548523 3.3526 -1.06849 
1 1.23727 1.69812 0.246984 
1 2.32412 2.50008 3.54411 
1 -0.527502 0.0991552 -1.50772 
1 -0.295017 2.45138 -3.08114 
1 0.250296 1.79352 -0.278249 
1 -3.27219 0.741453 0.882544 
1 -1.93317 2.64144 -1.71356 
1 -1.61752 -2.85323 1.58186 
1 1.48157 -0.90402 1.24618 
1 -3.58128 -0.949672 -3.35039 
1 -3.36729 -0.213568 3.19255 
1 -0.704434 -2.98993 -2.73531 
1 -0.895941 0.155509 -0.108411 
1 1.8907 2.77014 2.57561 
1 -1.14295 -2.73762 2.58058 
1 -3.13146 -2.35254 -0.311973 
1 3.38194 3.3885 1.77501 
1 1.12518 1.13799 -0.693355 
1 -1.12193 2.06355 2.09909 
1 -3.3493 -0.160466 -2.51005 
1 3.55508 -3.53754 3.22603 
1 -2.71438 0.889912 -0.253326 
1 -1.51275 1.21974 1.57709 
1 -0.023102 2.24456 -1.2168 
1 2.30844 -0.192277 0.669382 
1 0.465998 -3.39843 -0.128254 
1 2.27484 1.74566 2.73244 
1 -2.28382 3.61531 0.749886 
1 -1.64811 2.56161 -0.699715 
1 -0.122842 0.411422 1.45602 
1 -3.06739 0.0464486 1.67864 
1 1.86865 -3.18781 -2.43473 
1 0.0355527 2.26314 1.64418 
1 -3.17171 3.66914 -2.32868 
1 3.27119 1.29133 1.08674 
1 1.03705 -1.52313 -3.66066 
1 2.67204 3.17185 -3.13162 
1 -1.23145 0.701851 -0.999675 
1 -2.08835 -2.61202 -2.81973 
1 -3.72783 -1.58163 0.0941738 
1 0.00310207 -2.77936 3.47121 
1 -0.412215 -2.13037 -0.07118 
1 2.72648 -1.65102 -0.2637 
1 0.816481 -3.44285 3.55774 
1 -0.855577 1.55058 -2.61227 
1 0.549744 -1.81753 2.20909 
1 1.69149 -3.18246 3.0163 
1 2.07921 -1.22247 3.66855 
1 -2.31815 1.13544 3.38335 
1 -0.615018 -0.305233 -2.7811 
1 -2.58957 1.72954 -1.68748 
1 -2.4231 -2.25632 1.9965 
1 0.792083 -2.40031 0.344688 
1 0.874525 2.5716 -2.43671 
1 -3.63943 2.75985 1.0288 
1 3.61892 -1.1829 3.06499 
1 -0.288033 -3.59634 2.87211 
1 -2.48506 0.924156 1.60167 
1 3.17376 0.385999 0.544481 
1 -2.34933 -2.08104 3.07026 
2 0.0953836 -2.36763 2.71415 
2 0.704842 0.615094 1.23553 
2 -2.87508 1.08096 -1.14329 
2 1.81067 0.601501 3.64805 
2 2.64344 0.263532 2.19185 
2 -2.46491 1.50883 -3.25193 
2 3.01303 -0.523631 -1.74504 
2 -0.781999 -3.69821 -1.35639 
2 -3.512 -3.40851 1.67119 
2 -2.99073 -2.53623 2.62189 
2 2.26448 2.82217 0.515237 
2 -3.32132 -0.867268 0.330784 
2 -2.66131 -2.43569 -2.17477 
2 3.38885 -2.2315 -0.424838 
2 -1.47721 -2.96889 -2.30845 
2 0.490122 1.15899 -2.04984 
2 3.622 3.23762 0.284165 
2 2.66485 0.10514 -0.11894 
2 -0.0585938 -3.63738 -3.68265 
2 0.415438 1.63533 3.51831 
2 -1.88495 0.715929 0.975362 
2 -2.23038 1.81026 1.54483 
2 2.33264 2.5918 -2.53336 
2 1.42962 -3.27618 2.21066 
2 -2.93082 3.13549 -3.02357 
2 -1.46782 -0.110254 -2.78976 
2 -1.2718 3.15729 -3.08861 
2 -2.52543 3.26208 -1.85554 
2 -1.01219 -1.64236 -0.584043 
2 -0.654838 -1.64831 -1.89157 
2 -1.95406 1.95741 3.47788 
2 -2.41929 -3.57641 3.3399 
2 2.24582 -1.71829 -1.92894 
2 0.719795 -1.11916 -2.31801 
2 -1.29098 -2.56526 -3.27493 
2 0.454792 0.970171 -0.0900915 
2 -0.78046 -2.94105 1.28145 
2 1.8853 0.572772 0.695626 
2 0.54447 -3.1404 0.786042 
2 1.77692 -1.86295 -3.29405 
2 -3.41792 2.45637 3.37501 
2 -0.552106 0.167832 3.52782 
2 -2.80989 0.406436 3.49082 
2 1.20257 -3.50722 -3.07603 
2 -3.59186 0.312057 2.42368 
2 -2.04428 -1.14111 0.744762 
2 0.322463 1.35883 -1.06547 
2 0.288355 -1.6734 0.308323 
2 3.4477 -2.20057 1.23733 
2 0.917602 1.92552 1.26471 
2 -3.18357 -0.846452 1.70349 
2 -2.73875 -2.24304 1.18306 
2 -2.57072 -2.33417 -3.54314 
2 0.208234 -1.39381 -3.31192 
2 -3.57854 -1.05882 -2.45184 
2 -1.19125 1.39839 0.779874 
2 -1.21371 1.21513 2.40766 
2 -0.115366 -0.148324 -0.346225 
2 -3.71336 0.624547 -2.64204 
2 2.13874 -2.17154 -0.715293 
2 0.763028 -1.42593 2.95524 
2 -0.117348 -0.190417 2.17557 
2 3.65135 2.14765 -2.43285 
2 2.92309 -3.53472 -3.58395 
2 1.36345 -0.271012 -2.67184 
2 -3.64223 2.50318 -0.724372 
2 -2.90906 1.39588 2.76525 
2 -0.932123 -1.02134 2.20838 
2 1.88688 -0.585045 -1.27158 
2 -3.02107 1.58914 0.196349 
2 2.30816 -2.83627 2.36729 
2 0.55954 0.697222 3.48847 
2 1.84789 -1.39041 -0.289556 
2 2.41692 -2.03473 0.837522 
2 1.05056 -2.75444 -2.50838 
2 2.99496 1.01714 3.28225 
2 -0.71986 1.60166 -3.50929 
2 -0.0749072 -1.89707 1.59642 
2 -1.02569 -0.28499 -0.849155 
2 1.31678 -1.55151 1.85298 
2 1.88687 1.3336 -0.23878 
2 -2.92408 -1.49912 -0.425589 
2 3.12878 3.46683 2.61125 
2 0.0480147 -2.7564 -1.42727 
2 -3.45814 3.01821 -1.63676 
2 1.57889 1.24613 3.00402 
2 0.53401 -2.26541 -3.52657 
2 1.43378 -0.710915 -3.51532 
2 -1.93212 -1.06942 -1.64733 
2 3.004 1.68451 0.10067 
2 1.6032 3.26442 1.88916 
2 -0.709986 2.04294 -1.79148 
2 2.02168 0.810771 -1.0034 
2 0.0922852 3.02918 1.21305 
2 -0.686282 -1.23171 3.18947 
2 -2.279 -1.31134 2.6185 
2 -2.88238 -0.0773106 -1.77588 
2 -1.70698 3.03652 1.20315 
2 2.54975 -3.57193 1.40568 
2 -1.31299 3.08391 2.20336 
