ITEM: TIMESTEP
1588
ITEM: NUMBER OF ATOMS
500
ITEM: BOX BOUNDS xy xz yz pp pp pp
-4.10795 3.7345 -0.37345
-3.7345 3.7345 0
-3.7345 3.7345 0
ITEM: ATOMS type x y z 
1 -0.890946 2.54081 -0.323832 
1 0.306407 0.530812 -1.45027 
1 1.62024 0.434954 -0.181977 
1 -0.146561 -2.41866 0.899995 
1 2.45839 0.980087 -0.461561 
1 3.01581 -0.58237 -2.62682 
1 0.120386 -0.505409 -1.05936 
1 -1.62833 -3.35116 0.0219978 
1 2.06873 -1.38654 -1.09806 
1 2.82393 -0.603995 3.67662 
1 -3.50837 1.77869 1.02666 
1 1.0194 -1.43942 0.224766 
1 -0.364849 0.75192 -0.642751 
1 -1.78947 3.70822 2.85775 
1 2.11303 2.85466 1.65753 
1 -1.6806 2.41213 -3.45044 
1 3.19888 1.29839 -2.19167 
1 2.28675 -2.50579 -3.22619 
1 2.15744 3.30121 -1.91935 
1 2.62053 -3.13536 -1.58277 
1 -3.34578 0.213723 -1.00035 
1 0.970939 -3.65144 1.56471 
1 0.771252 -0.601901 3.22509 
1 -3.88304 2.49535 -3.21667 
1 2.53377 -1.9671 2.64825 
1 -0.782551 -0.886875 -0.256309 
1 2.13172 1.70468 1.65271 
1 1.36694 -1.11943 -2.76539 
1 -0.875784 2.18703 0.704489 
1 -1.69331 1.90047 0.0805828 
1 -1.83695 1.4019 -3.35043 
1 -1.21921 -3.65746 0.958828 
1 -3.14366 2.73655 -1.12605 
1 -3.71078 -1.72842 -0.995515 
1 -1.48766 0.628859 3.25336 
1 0.70648 -2.61751 1.51303 
1 2.03547 -0.589004 -0.349307 
1 0.218531 3.32054 -3.12972 
1 -1.68337 -3.607 -1.24854 
1 1.15777 -0.397621 0.323598 
1 1.46698 3.41388 1.0376 
1 -0.205497 -2.30585 -2.14843 
1 -0.0528035 3.0963 3.33216 
1 -2.94017 -0.611347 2.45124 
1 0.827265 1.54159 -2.61912 
1 -3.24735 -3.47649 2.50213 
1 -0.118943 1.36773 -3.17104 
1 -1.38253 3.4523 -0.515264 
1 2.11165 -0.819186 -2.04283 
1 -2.41639 0.587196 -1.45194 
1 3.44883 -0.562205 2.20624 
1 -1.60332 -3.46738 -3.0504 
1 -0.187514 0.358394 0.366431 
1 -0.103029 -0.907628 2.68696 
1 1.80895 -2.16261 3.36125 
1 -1.17291 2.95302 1.45155 
1 2.6172 -2.33643 -2.25802 
1 0.310398 3.39835 0.657554 
1 1.50103 2.41512 -1.88564 
1 0.823377 -2.28526 3.08588 
1 2.57681 2.24343 0.789929 
1 -0.386941 -2.15095 -3.21446 
1 3.47223 -0.511772 1.10582 
1 1.9029 1.51521 -2.40933 
1 -0.546891 -3.1829 0.258285 
1 1.39216 -3.32424 0.381761 
1 3.32951 -2.76134 -3.40889 
1 2.87084 -1.81171 3.67778 
1 2.03058 -0.340279 -3.06776 
1 1.79597 1.70696 -1.06601 
1 -1.72241 -0.259164 -1.56105 
1 2.6185 -2.44078 1.67274 
1 -3.68171 -0.706205 -1.60092 
1 0.742134 -0.769929 2.09481 
1 3.08951 -3.23443 2.29779 
1 0.486104 -1.45826 1.15672 
1 -2.62701 -1.65341 -1.2658 
1 -0.765579 1.37423 1.38998 
1 -2.31921 1.55507 2.43466 
1 0.11238 2.86854 -0.285444 
1 -0.751681 3.24459 0.450644 
1 -3.2232 -1.65078 2.4455 
1 2.05196 0.711866 2.8854 
1 -1.09852 -2.09932 3.42335 
1 0.584931 -1.92274 -2.74245 
1 3.53528 -2.94785 -0.884654 
1 2.83961 -3.37306 -2.65348 
1 -3.88572 2.09674 -1.56721 
1 -0.855815 -3.57734 1.95815 
1 3.06941 2.93559 -2.35458 
1 0.661887 -3.34895 -1.21391 
1 -0.61894 -1.77497 2.44257 
1 -3.53023 -2.55096 1.84261 
1 1.26193 0.171432 1.37438 
1 1.20348 -1.90864 -0.742748 
1 -2.54045 1.42211 0.710826 
1 -1.87378 2.95144 0.329747 
1 3.13788 2.13071 1.77886 
1 -1.65837 -1.70122 2.28609 
1 -3.16815 0.744251 -3.18295 
1 -2.9225 -1.57755 -3.00142 
1 1.81432 -2.43268 -1.50241 
1 0.0896847 1.30859 0.749906 
1 3.5706 -2.73112 -2.07899 
1 -1.12133 -0.164851 1.77846 
1 -3.38191 -3.69921 0.871486 
1 -2.77295 3.2789 2.693 
1 -0.0666465 -1.7212 3.35502 
1 2.15737 3.54002 3.12581 
1 2.19288 0.65334 1.41504 
1 1.35671 3.30043 -2.68719 
1 -3.79689 0.820696 3.16658 
1 3.03661 -1.40989 -1.91844 
1 -2.14131 0.0439456 -0.51124 
1 -2.59363 3.38501 -0.456706 
1 3.27244 -1.61568 1.99552 
1 1.99295 1.42981 -3.71619 
1 -1.88637 -0.643184 2.32316 
1 3.14426 0.144265 -0.599634 
1 3.3293 3.66065 -3.19774 
1 -1.74653 1.64265 -1.74783 
1 2.92896 0.125005 2.85745 
1 2.62582 -2.86626 3.25882 
1 0.15071 2.35501 0.6409 
1 1.11652 1.97998 2.04157 
1 -0.939855 -3.1981 3.67324 
1 3.2654 -3.14773 1.23641 
1 1.8129 -0.225396 3.34795 
1 -2.81347 2.57997 1.01923 
1 -3.37752 1.63969 -2.67561 
1 -2.64681 -3.51493 -3.22804 
1 1.05135 2.06854 3.20377 
1 1.83988 3.48523 -0.00692202 
1 -2.3093 2.59247 1.96534 
1 -0.0301845 0.106576 3.00421 
1 -2.28292 3.28911 3.70881 
1 1.47528 -1.31128 2.70295 
1 1.49973 2.28914 -3.05309 
1 -2.38758 0.0219437 -2.38954 
1 -0.801283 3.50515 -2.91161 
1 -0.475108 1.02604 3.37174 
1 0.924363 2.24932 -0.666607 
1 -0.515475 -1.43606 0.730171 
1 1.25305 1.00695 -1.73511 
1 -0.538815 1.62847 2.4754 
1 -0.221383 3.3331 2.02977 
1 -0.0972902 -3.49345 1.20481 
1 2.63251 2.07605 -2.95298 
1 -1.39208 2.58735 -2.4212 
1 2.98365 -1.44634 0.985106 
1 -3.58083 0.0156824 0.140749 
1 1.58659 -2.11127 -2.4743 
1 -3.44647 1.6499 3.69774 
1 1.84303 -2.26007 0.1767 
1 2.47736 -0.870911 2.67213 
1 -2.81986 -1.12701 3.40571 
1 2.39432 -1.46372 -2.85123 
1 2.48923 -0.4643 1.6471 
1 1.98669 -3.48548 -3.49528 
1 -2.31556 2.06994 -2.60369 
1 -3.28845 3.2738 1.7156 
1 -1.33742 -2.54978 -0.648653 
1 1.78748 0.175608 -2.09499 
1 -0.618971 1.22975 -1.58709 
1 1.21955 -2.63274 -3.34794 
1 -1.04892 -1.28842 -3.32014 
1 0.638893 1.8381 -1.58597 
1 -2.18069 -0.112511 1.4291 
1 2.08677 1.28196 0.528733 
1 -1.173 1.70028 -0.837826 
1 -2.14994 0.408755 -3.35668 
1 -1.34114 -1.02588 -2.23005 
1 -1.45091 0.601357 -2.17076 
1 -3.80055 2.89534 2.59537 
1 2.81068 1.14248 2.31075 
1 -2.27918 1.46947 -0.786038 
1 3.25886 0.227387 -1.75847 
1 0.862298 -3.63518 -2.23473 
1 0.441285 2.2889 -3.41673 
1 -2.17727 -1.70288 -2.26224 
1 -1.89662 0.456046 2.30201 
1 2.04994 -1.25345 0.546065 
1 -3.9853 2.16011 0.119729 
1 -1.50057 -1.74736 -1.40427 
1 3.36842 -3.36233 0.111793 
1 0.550362 2.98205 -1.41384 
1 1.24982 -1.45483 -1.72973 
1 -0.514762 -2.04911 -1.12791 
1 -2.69871 -3.14342 1.48425 
1 0.535646 -3.09988 2.48194 
1 -2.93392 0.506959 2.60601 
1 0.186115 -1.43011 -1.61301 
1 2.14946 -1.47941 1.75639 
1 -1.46942 -1.05655 1.35652 
1 0.267032 1.3572 1.77826 
1 2.98943 -2.36861 0.465284 
1 3.42549 -1.84934 -2.84153 
1 0.528697 0.171194 -0.398735 
1 -1.56392 3.61086 -2.15524 
1 -2.70499 2.20443 0.00388685 
1 2.54846 -2.84604 -0.401633 
1 -2.61901 0.207978 0.502126 
1 -0.169349 1.90943 -2.25818 
1 2.99172 -0.66962 0.150281 
1 2.40231 0.958705 -1.58121 
1 -2.93691 2.25501 2.98529 
1 0.921747 3.4944 -0.542143 
1 -2.25883 3.62854 1.82428 
1 -0.794034 -0.964776 -1.31662 
1 -1.84741 2.16452 1.10072 
1 3.01503 2.98836 3.48763 
1 -0.48854 2.11834 3.41384 
1 0.176661 -1.45804 -0.527964 
1 -3.32287 0.789434 -1.97032 
1 3.53466 -2.4121 2.8331 
1 2.85943 1.90519 -0.757223 
1 -3.29742 2.60363 -2.28797 
1 -0.383513 2.95518 -2.07533 
1 -2.40457 1.05847 -2.47684 
1 -3.07684 -2.61804 -1.40788 
1 1.65404 0.69606 -2.9771 
1 -0.995797 -0.366503 2.84196 
1 1.73854 -2.95585 1.39343 
1 2.32194 -0.0646206 -1.22257 
1 -3.95561 3.38446 -0.624259 
1 1.07397 2.78496 0.238021 
1 -0.767122 0.60918 2.39767 
1 2.97114 -0.895768 -0.928184 
1 -0.306348 -1.29244 -2.55248 
1 1.65726 -0.195945 2.2931 
1 -1.75145 -0.97957 -0.725152 
1 1.03559 0.403843 2.98519 
1 0.293313 -3.06359 -3.00175 
1 0.681286 0.447646 -2.48853 
1 -2.25246 -3.09895 2.59177 
1 -0.733591 -0.421448 0.796582 
1 -1.07341 0.653615 -3.22711 
1 0.467938 -0.645976 -3.03659 
1 -2.86916 -3.66728 -1.29249 
1 -2.22772 -3.45793 -2.16804 
1 -3.40965 3.24487 3.5486 
1 -0.0171744 -0.377332 -2.10516 
1 1.43656 -1.95896 1.11886 
1 -2.00778 -1.94637 1.12188 
1 -2.44599 3.11796 -2.69975 
1 -1.4353 1.68993 3.16402 
1 1.22804 1.24095 1.18236 
1 -3.34546 3.00937 0.171189 
1 2.67862 0.463806 -2.61634 
1 0.247936 2.40285 2.55757 
1 2.54909 2.08684 -1.85512 
1 3.17816 0.352117 1.68827 
1 -1.22923 -2.08895 -2.49418 
1 -0.0690662 0.281541 -3.35403 
1 2.60516 3.34145 0.792765 
1 -3.45953 -2.60497 0.697466 
1 -1.29162 -2.50622 0.577342 
1 3.46528 0.134096 -3.38412 
1 2.62752 2.60517 2.58282 
1 -2.03909 -2.58283 -1.66661 
1 2.88568 2.8353 -1.24796 
1 2.40838 -3.19854 0.646975 
1 3.21401 1.17931 -3.26628 
1 0.152547 -0.695395 0.183756 
1 -1.41119 -0.313718 -3.65708 
1 -3.24255 2.13944 1.96903 
1 -1.7118 -1.17165 3.22475 
1 -3.38256 1.77765 -0.676773 
1 -3.21834 -2.63999 -2.90411 
1 -1.96028 -2.86414 3.61131 
1 0.759703 -2.40559 -1.70666 
1 -0.996375 -2.84906 -1.65247 
1 -2.79274 -1.72225 0.455466 
1 2.49416 0.467379 -3.66238 
1 1.26807 0.116598 -1.12814 
1 0.350192 -2.49759 -0.638694 
1 3.44293 1.1051 -0.0281305 
1 1.47085 -2.92319 -0.612284 
1 3.44478 1.07081 -1.13516 
1 0.963041 0.13597 -3.49345 
1 1.68158 -3.65385 -1.48812 
1 1.9027 2.14441 -0.0740002 
1 2.91128 1.92578 3.50217 
1 -2.30477 -0.146856 3.20039 
1 -0.840527 1.22563 0.18551 
1 -0.373489 0.630542 -2.3961 
1 -0.28494 -2.67583 1.94327 
1 -3.63641 1.11267 2.01328 
1 -1.90333 2.61997 2.95228 
1 2.48163 3.68687 -0.796123 
1 -3.53033 -0.789488 -0.524435 
1 -1.87278 0.870942 0.100911 
1 0.95032 1.21775 -3.63257 
1 -3.91546 1.82998 2.72471 
1 0.474393 0.291217 2.09563 
1 -2.16352 -1.92879 -0.368436 
1 -0.456763 -3.15423 -0.7972 
1 -2.57938 -0.835103 -0.0602355 
1 1.36523 0.949745 2.15347 
1 1.06752 -0.855425 -0.698815 
1 -0.158493 -3.44624 -1.93635 
1 -2.51531 -1.23135 1.69807 
1 -2.82612 2.42712 -3.43996 
1 -1.5037 -1.45724 0.296 
1 1.53389 -2.29184 2.22933 
1 1.46636 2.26271 1.03856 
1 -0.872366 2.78263 2.63896 
1 -2.81131 -0.891598 -2.16746 
1 -1.00508 -2.02303 1.48342 
1 0.453988 1.24952 2.79174 
1 -2.92805 -0.300468 -3.38002 
1 1.07677 3.10792 3.62531 
1 2.69627 2.82281 -0.165725 
1 -3.04471 -2.93241 3.43155 
1 -3.44251 -1.62852 1.25838 
1 0.828684 0.597441 0.485981 
1 -1.13083 3.1987 3.60697 
1 -0.36259 -0.965944 1.67901 
1 -1.22195 2.79202 -1.39466 
1 1.79793 2.85311 -0.928636 
1 0.724958 3.45509 2.58194 
1 -3.37992 -1.7746 -2.02465 
1 -1.75675 -0.42366 0.481051 
1 3.53145 -3.70198 -1.64287 
1 -2.38495 -2.73191 0.498216 
1 -3.01377 -3.40604 -0.0595338 
1 -2.96273 -0.700571 0.920023 
1 -0.319208 -0.6786 3.69931 
1 0.986777 -0.480903 -1.92545 
1 -2.32565 -2.94081 -0.693386 
1 0.366244 -0.330206 1.14998 
1 0.590526 2.75488 1.51081 
1 2.10455 -3.6387 2.15953 
1 -2.67136 -0.602464 -1.15824 
1 2.81522 -2.15858 -1.18647 
1 -1.94879 -1.81939 -3.4323 
1 -3.45806 -1.97109 3.65843 
1 -1.2648 0.511358 0.915554 
1 -2.06928 -0.829885 -3.00017 
1 -0.418608 3.35907 -1.04078 
1 0.958516 1.66509 0.242154 
1 2.01689 2.51525 3.51363 
1 -0.702165 0.112731 -1.46304 
1 -0.580707 2.46341 -3.08281 
1 -0.0295283 1.77487 -0.287154 
1 -3.50141 0.741685 0.899223 
1 -2.23364 2.69824 -1.73207 
1 -1.65164 -2.85093 1.57858 
1 1.40771 -0.863747 1.27993 
1 -3.74214 -0.972898 -3.3692 
1 -3.57479 -0.245262 3.19202 
1 -0.74836 -2.99798 -2.72652 
1 -1.10548 0.157408 -0.121342 
1 1.55564 2.80066 2.58601 
1 -1.19354 -2.72594 2.56893 
1 -3.18941 -2.38716 -0.329762 
1 3.05563 3.34467 1.79269 
1 0.900251 1.13525 -0.715201 
1 -1.40297 2.07675 2.08236 
1 -3.49197 -0.143693 -2.49967 
1 3.51915 -3.45275 3.27835 
1 -2.96791 0.874085 -0.239469 
1 -1.75392 1.22236 1.58383 
1 -0.284592 2.24371 -1.21789 
1 2.11142 -0.196431 0.690417 
1 0.41145 -3.44956 -0.143949 
1 1.99036 1.76172 2.71744 
1 -2.65183 3.62397 0.764529 
1 -1.9865 2.53151 -0.717521 
1 -0.316642 0.42668 1.42755 
1 -3.26692 0.0177256 1.67835 
1 1.79409 -3.13075 -2.44782 
1 -0.346733 2.29661 1.66048 
1 -3.5486 3.6304 -2.33535 
1 3.01934 1.29879 1.10197 
1 0.917793 -1.49476 -3.67498 
1 2.32678 3.15288 -3.15364 
1 -1.44931 0.698823 -1.00297 
1 -2.16492 -2.61176 -2.81245 
1 -3.8011 -1.63012 0.115187 
1 -0.0260202 -2.79356 3.45686 
1 -0.532992 -2.12177 -0.0750112 
1 2.63817 -1.65716 -0.242546 
1 0.802867 -3.44617 3.5568 
1 -1.09234 1.55544 -2.60839 
1 0.462548 -1.81415 2.18764 
1 1.63154 -3.13972 2.98532 
1 1.95438 -1.19252 3.68318 
1 -2.55784 1.13079 3.39673 
1 -0.779626 -0.321988 -2.81366 
1 -2.85672 1.74785 -1.67818 
1 -2.49676 -2.25771 2.009 
1 0.767747 -2.4602 0.350848 
1 0.597923 2.61312 -2.4149 
1 -3.95571 2.75329 1.00906 
1 3.47546 -1.23424 3.03739 
1 -0.315823 -3.61864 2.87493 
1 -2.70981 0.897119 1.61738 
1 2.97234 0.371191 0.590121 
1 -2.43579 -2.07947 3.07737 
2 0.0111012 -2.35424 2.70887 
2 0.521091 0.668073 1.28945 
2 -3.09496 1.06994 -1.12674 
2 1.61933 0.607402 3.63255 
2 2.41018 0.287518 2.17608 
2 -2.70783 1.52481 -3.24654 
2 2.89248 -0.558434 -1.73719 
2 -1.17336 3.72335 -1.36763 
2 -3.51267 -3.4298 1.68889 
2 -3.05981 -2.57426 2.61684 
2 1.94251 2.80806 0.536876 
2 -3.6136 -0.831397 0.365023 
2 -2.74829 -2.37934 -2.19174 
2 3.28641 -2.26189 -0.391921 
2 -1.52646 -2.95613 -2.32431 
2 0.262317 1.1604 -2.05338 
2 3.30639 3.27858 0.258511 
2 2.44384 0.14288 -0.0750391 
2 -0.0686549 -3.64944 -3.68671 
2 0.22765 1.63457 3.52315 
2 -2.11161 0.693959 0.991602 
2 -2.51757 1.7867 1.5546 
2 2.13112 2.61239 -2.47365 
2 1.35139 -3.15806 2.16247 
2 -3.28472 3.12331 -3.03372 
2 -1.60705 -0.0351221 -2.81265 
2 -1.62228 3.19896 -3.0579 
2 -2.88557 3.24539 -1.86885 
2 -1.1598 -1.65528 -0.567756 
2 -0.748868 -1.64707 -1.88094 
2 -2.24376 1.96259 3.48181 
2 -2.44094 -3.57305 3.33871 
2 2.14021 -1.68586 -1.92362 
2 0.579674 -1.14453 -2.33084 
2 -1.34843 -2.55566 -3.26341 
2 0.287919 0.988387 -0.0767876 
2 -0.809446 -2.91427 1.24944 
2 1.6647 0.553179 0.700308 
2 0.631669 -3.19332 0.824381 
2 1.65035 -1.83833 -3.28791 
2 -3.7516 2.42696 3.37018 
2 -0.738828 0.177758 3.53002 
2 -3.01377 0.374073 3.49243 
2 1.19382 -3.49226 -3.06965 
2 -3.76789 0.280915 2.42155 
2 -2.1978 -1.13224 0.804681 
2 0.101041 1.36864 -1.07588 
2 0.19769 -1.76729 0.329909 
2 3.36928 -2.22441 1.25055 
2 0.655785 1.90748 1.20171 
2 -3.36072 -0.88347 1.71169 
2 -2.82609 -2.2808 1.1963 
2 -2.66046 -2.32107 -3.52614 
2 0.0903269 -1.38437 -3.32495 
2 -3.69185 -1.05265 -2.45503 
2 -1.47032 1.40487 0.776586 
2 -1.41945 1.2248 2.41509 
2 -0.3114 -0.127466 -0.38311 
2 -3.89753 0.632424 -2.63977 
2 2.05436 -2.18891 -0.693699 
2 0.630068 -1.40894 2.93526 
2 -0.316214 -0.177245 2.17982 
2 3.37816 2.12423 -2.43174 
2 2.88276 -3.5346 -3.57411 
2 1.2367 -0.203759 -2.71685 
2 -3.93151 2.49632 -0.721964 
2 -3.15661 1.37784 2.77553 
2 -1.07035 -1.00846 2.212 
2 1.6436 -0.653128 -1.32936 
2 -3.29538 1.56488 0.203144 
2 2.26818 -2.80102 2.42551 
2 0.367418 0.694447 3.49151 
2 1.75213 -1.41523 -0.264375 
2 2.30289 -2.03517 0.940881 
2 0.958386 -2.74777 -2.49773 
2 2.8012 1.07711 3.22487 
2 -0.954628 1.54985 -3.51487 
2 -0.172137 -1.84438 1.59253 
2 -1.19704 -0.301211 -0.851371 
2 1.22602 -1.51375 1.85962 
2 1.6341 1.32533 -0.236891 
2 -3.01302 -1.52486 -0.427935 
2 2.94476 3.43035 2.66883 
2 -0.0112857 -2.74339 -1.41783 
2 -3.80411 3.02773 -1.65826 
2 1.32986 1.24849 3.01259 
2 0.452725 -2.24469 -3.55081 
2 1.2849 -0.683246 -3.52788 
2 -2.0536 -1.073 -1.63394 
2 2.72594 1.6872 0.0879573 
2 1.24206 3.18925 1.86013 
2 -0.941417 2.0512 -1.82561 
2 1.75802 0.813411 -1.00143 
2 -0.287248 3.03356 1.18617 
2 -0.812388 -1.23478 3.18047 
2 -2.40259 -1.31837 2.60827 
2 -3.01557 -0.0600603 -1.76849 
2 -2.04852 3.03967 1.20222 
2 2.5774 -3.67875 1.43129 
2 -1.61518 3.09225 2.21922 
