ITEM: TIMESTEP
252
ITEM: NUMBER OF ATOMS
500
ITEM: BOX BOUNDS xy xz yz pp pp pp
-3.7345 4.10795 0.37345
-3.7345 3.7345 0
-3.7345 3.7345 0
ITEM: ATOMS type x y z 
1 -0.274201 2.5778 -0.330887 
1 0.696922 0.533319 -1.43812 
1 2.08928 0.479765 -0.183748 
1 -0.0683167 -2.48889 0.925665 
1 2.9641 1.01219 -0.449903 
1 3.28549 -0.603117 -2.64457 
1 0.424455 -0.510326 -1.07036 
1 -1.56052 -3.3344 0.0751336 
1 2.25739 -1.35212 -1.10022 
1 3.05602 -0.704305 -3.69957 
1 -2.90707 1.81147 1.0276 
1 1.26319 -1.3994 0.270864 
1 0.0263095 0.744322 -0.643546 
1 -1.06694 3.7289 2.89818 
1 2.82399 2.80099 1.66746 
1 -1.02472 2.35478 -3.46696 
1 3.70974 1.33476 -2.24961 
1 2.50102 -2.58306 -3.24053 
1 2.79455 3.25095 -2.00663 
1 2.70724 -3.12573 -1.64038 
1 -2.90889 0.25826 -1.01076 
1 0.977612 -3.62318 1.59324 
1 1.06596 -0.64254 3.25806 
1 -3.14027 2.58886 -3.1097 
1 2.66604 -2.03968 2.60888 
1 -0.476026 -0.892728 -0.22726 
1 2.7666 1.6417 1.65304 
1 1.62017 -1.20503 -2.73862 
1 -0.210789 2.18747 0.665229 
1 -1.10053 1.93297 0.104586 
1 -1.41553 1.40912 -3.43496 
1 -1.18399 -3.66038 0.984331 
1 -2.471 2.7245 -1.01626 
1 -3.52428 -1.7098 -1.02512 
1 -1.14346 0.643119 3.23467 
1 0.824992 -2.59858 1.47925 
1 2.35939 -0.546301 -0.390042 
1 0.962593 3.34344 -3.11327 
1 -1.38327 3.67469 -1.30722 
1 1.52758 -0.356012 0.314198 
1 2.1934 3.39971 1.0623 
1 -0.0304854 -2.33422 -2.16984 
1 0.624644 3.13677 3.35239 
1 -2.63724 -0.552469 2.40489 
1 1.28198 1.48605 -2.61595 
1 -3.21375 -3.37615 2.47213 
1 0.345556 1.32901 -3.14267 
1 -0.614587 3.54206 -0.537043 
1 2.38616 -0.905338 -2.03534 
1 -1.96308 0.635891 -1.47 
1 3.77836 -0.500156 2.18847 
1 -1.51182 -3.51001 -3.0806 
1 0.266189 0.350737 0.424356 
1 0.160233 -0.935942 2.71448 
1 1.99126 -2.22669 3.37332 
1 -0.45519 2.93317 1.46981 
1 2.90195 -2.33384 -2.29566 
1 1.04692 3.4451 0.687587 
1 2.06999 2.29352 -1.96055 
1 0.996751 -2.33475 3.14176 
1 3.20828 2.27614 0.785784 
1 -0.201878 -2.14491 -3.19557 
1 3.82292 -0.493965 1.04669 
1 2.63016 1.49592 -2.56719 
1 -0.445445 -3.23766 0.248176 
1 1.39003 -3.21528 0.574557 
1 3.53595 -2.79771 -3.49305 
1 3.08543 -1.84981 3.61137 
1 2.25281 -0.406772 -3.03151 
1 2.31658 1.71839 -1.04041 
1 -1.38856 -0.28182 -1.55806 
1 2.70715 -2.39117 1.61092 
1 -3.38985 -0.749338 -1.62548 
1 1.00815 -0.819313 2.13667 
1 3.18716 -3.15801 2.24373 
1 0.689444 -1.55058 1.17743 
1 -2.44143 -1.63293 -1.25474 
1 -0.289458 1.42865 1.38446 
1 -1.70615 1.63229 2.46366 
1 0.746171 2.93841 -0.242709 
1 -0.0117641 3.21137 0.493705 
1 -3.03594 -1.57254 2.43015 
1 2.43358 0.607804 2.90429 
1 -0.874828 -2.12168 3.4034 
1 0.808395 -1.9312 -2.69342 
1 3.6702 -2.95491 -0.840608 
1 2.99274 -3.37762 -2.64364 
1 -3.28068 2.11942 -1.58813 
1 -0.874026 -3.5934 1.98965 
1 3.79903 3.01552 -2.30917 
1 0.705385 -3.40207 -1.20344 
1 -0.43668 -1.78028 2.4568 
1 -3.44535 -2.49869 1.84978 
1 1.60518 0.15325 1.31075 
1 1.40013 -1.8792 -0.694045 
1 -1.94516 1.46136 0.743359 
1 -1.10119 2.98437 0.343021 
1 3.74372 2.14763 1.76227 
1 -1.48355 -1.70024 2.27846 
1 -2.8641 0.748132 -3.13152 
1 -2.65457 -1.56598 -3.03257 
1 1.94609 -2.46272 -1.41749 
1 0.586201 1.38191 0.752749 
1 -3.64473 -2.80974 -2.12357 
1 -0.788024 -0.189441 1.78802 
1 -3.36204 -3.69628 0.842706 
1 -2.06083 3.34991 2.67842 
1 0.147531 -1.73779 3.3689 
1 2.89473 3.4474 3.24318 
1 2.55826 0.594872 1.48584 
1 2.00722 3.18079 -2.74915 
1 -3.41333 0.848345 3.23962 
1 3.31712 -1.41595 -1.94121 
1 -1.71307 0.0423195 -0.549151 
1 -1.86127 3.43404 -0.373098 
1 3.4139 -1.56121 2.02553 
1 2.43725 1.3486 3.73261 
1 -1.60097 -0.635725 2.30862 
1 3.59938 0.15972 -0.624637 
1 -3.35346 3.62819 -3.2156 
1 -1.20239 1.55749 -1.74426 
1 3.30678 0.0337175 2.99693 
1 2.75888 -2.94458 3.21784 
1 0.818605 2.41593 0.669104 
1 1.66217 1.92674 2.07046 
1 -0.815218 -3.19968 3.6757 
1 3.33735 -3.08895 1.18198 
1 2.10732 -0.292084 3.35776 
1 -2.15065 2.58793 0.995149 
1 -2.80757 1.69385 -2.60602 
1 -2.57541 -3.50094 -3.22848 
1 1.66365 2.06006 3.22314 
1 2.4898 3.59115 0.0270996 
1 -1.69622 2.63574 1.95817 
1 0.323278 0.0774046 3.01997 
1 -1.5833 3.22593 -3.71791 
1 1.72247 -1.37613 2.70166 
1 1.98172 2.15837 -3.11454 
1 -2.08926 0.0267863 -2.39245 
1 -0.0675908 3.49245 -2.97363 
1 -0.0650935 1.01449 3.3977 
1 1.47753 2.27729 -0.678877 
1 -0.334542 -1.47072 0.784449 
1 1.87013 1.06548 -1.79999 
1 0.0035574 1.56751 2.45575 
1 0.546186 3.33286 2.06531 
1 -0.0963946 -3.53331 1.24121 
1 3.33456 2.1471 -3.06753 
1 -0.765267 2.55927 -2.37964 
1 3.1992 -1.37141 0.980075 
1 -3.09782 0.0176313 0.114318 
1 1.84605 -2.20783 -2.45287 
1 -3.10343 1.67181 -3.62995 
1 2.01303 -2.17485 0.162819 
1 2.74764 -0.898674 2.68146 
1 -2.54498 -1.09313 3.39212 
1 2.64086 -1.49683 -2.88815 
1 2.85414 -0.488721 1.62405 
1 2.01897 -3.51814 -3.46471 
1 -1.69247 2.05576 -2.60087 
1 -2.59099 3.29977 1.72091 
1 -1.16771 -2.52297 -0.586532 
1 2.10916 0.087251 -2.08785 
1 -0.154229 1.20696 -1.59266 
1 1.39141 -2.65794 -3.32907 
1 -0.820638 -1.29245 -3.3318 
1 1.13327 1.77393 -1.57953 
1 -1.80348 -0.141085 1.39972 
1 2.61793 1.27385 0.556182 
1 -0.614208 1.72074 -0.819735 
1 -1.85486 0.471997 -3.4106 
1 -1.10677 -1.05599 -2.22163 
1 -1.05387 0.545364 -2.18436 
1 -3.16266 2.99639 2.62317 
1 3.29623 0.995977 2.4571 
1 -1.72697 1.55128 -0.796293 
1 3.68158 0.230159 -1.73671 
1 0.954305 -3.62227 -2.21508 
1 0.962187 2.27395 -3.48264 
1 -1.99549 -1.77695 -2.22197 
1 -1.55664 0.469916 2.27766 
1 2.27978 -1.16563 0.530513 
1 -3.3918 2.18197 0.128102 
1 -1.28285 -1.77721 -1.40274 
1 3.36212 -3.38624 0.118958 
1 1.2703 2.98242 -1.49513 
1 1.45762 -1.55029 -1.73936 
1 -0.307241 -2.0659 -1.1306 
1 -2.67568 -3.10552 1.44664 
1 0.656192 -3.07348 2.49511 
1 -2.60791 0.55208 2.60257 
1 0.410427 -1.4708 -1.62577 
1 2.32346 -1.42123 1.77409 
1 -1.20782 -1.06397 1.33544 
1 0.788066 1.25284 1.76732 
1 3.14154 -2.32031 0.430754 
1 3.66665 -1.81865 -2.90965 
1 0.909062 0.170219 -0.407952 
1 -0.753463 3.63515 -2.16125 
1 -2.12786 2.16797 -0.021028 
1 2.67198 -2.79361 -0.42084 
1 -2.09339 0.235856 0.449437 
1 0.279469 1.9096 -2.23947 
1 3.33912 -0.629187 0.0964421 
1 2.92971 1.04518 -1.58759 
1 -2.29678 2.35454 2.93925 
1 1.63807 3.42694 -0.580504 
1 -1.54674 3.66654 1.79954 
1 -0.525968 -0.992778 -1.29986 
1 -1.17879 2.17781 1.11918 
1 3.71271 2.82634 3.55007 
1 0.0243179 2.19508 3.34503 
1 0.414512 -1.44441 -0.550494 
1 -2.88148 0.755764 -2.0183 
1 3.67796 -2.42323 2.86494 
1 3.41845 1.94312 -0.731857 
1 -2.56429 2.64909 -2.20487 
1 0.223731 2.95654 -2.09498 
1 -1.94025 1.05552 -2.51213 
1 -2.92617 -2.60257 -1.37241 
1 2.00833 0.725896 -2.9253 
1 -0.710145 -0.376953 2.84397 
1 1.90021 -3.07056 1.52771 
1 2.72101 0.0677969 -1.19981 
1 -3.29774 3.39064 -0.610317 
1 1.75233 2.79779 0.242175 
1 -0.397643 0.570639 2.43395 
1 3.21291 -0.873975 -0.982925 
1 -0.0747249 -1.28542 -2.54245 
1 1.98532 -0.22639 2.25857 
1 -1.45299 -0.995689 -0.716662 
1 1.3841 0.371176 3.00951 
1 0.428886 -3.03354 -2.96682 
1 1.07722 0.426289 -2.43076 
1 -2.21259 -3.0642 2.57182 
1 -0.370376 -0.420845 0.809539 
1 -0.723277 0.629051 -3.24198 
1 0.754161 -0.697513 -3.06563 
1 -2.87225 -3.67364 -1.2382 
1 -2.2109 -3.38296 -2.19616 
1 -2.64527 3.26437 3.55607 
1 0.342025 -0.384443 -2.13547 
1 1.67523 -2.04438 1.15791 
1 -1.82952 -1.91921 1.06461 
1 -1.67579 3.12783 -2.64217 
1 -0.86157 1.6701 3.14729 
1 1.72475 1.25653 1.1934 
1 -2.67848 3.02011 0.152132 
1 3.01482 0.448616 -2.53113 
1 0.830267 2.39188 2.60122 
1 3.1414 2.17891 -1.94064 
1 3.56915 0.384875 1.61642 
1 -1.0484 -2.07533 -2.51828 
1 0.269807 0.234985 -3.35842 
1 3.2585 3.38432 0.803793 
1 -3.33751 -2.55369 0.709914 
1 -1.12181 -2.52461 0.584594 
1 3.7784 0.103175 -3.40882 
1 3.2835 2.57497 2.62181 
1 -1.87921 -2.61538 -1.59377 
1 3.52515 2.86231 -1.25803 
1 2.43907 -3.07342 0.639081 
1 3.48675 1.10281 -3.27185 
1 0.489526 -0.686265 0.183948 
1 -1.1161 -0.298145 -3.65831 
1 -2.64597 2.18199 1.95653 
1 -1.45391 -1.15365 3.20987 
1 -2.84737 1.77528 -0.684952 
1 -3.03238 -2.57753 -2.95325 
1 -1.8215 -2.8724 3.57094 
1 0.92354 -2.4815 -1.71225 
1 -0.856238 -2.81607 -1.65966 
1 -2.6441 -1.62269 0.464659 
1 2.77535 0.34033 -3.56841 
1 1.66451 0.218893 -1.12344 
1 0.551758 -2.48878 -0.6943 
1 -3.47861 1.11356 -0.0849582 
1 1.56216 -2.96162 -0.493984 
1 3.92656 1.11483 -1.18014 
1 1.322 0.10852 -3.43521 
1 1.7574 -3.59177 -1.41227 
1 2.53455 2.13386 -0.0706755 
1 3.37613 1.73459 3.35508 
1 -1.99028 -0.130594 3.17903 
1 -0.34156 1.19912 0.236788 
1 0.00929671 0.606946 -2.41095 
1 -0.186052 -2.73372 1.97378 
1 -3.27494 1.18246 1.97208 
1 -1.23781 2.64087 2.93697 
1 3.12181 3.71004 -0.810741 
1 -3.26212 -0.762071 -0.575191 
1 -1.39082 0.92831 0.0236726 
1 1.3662 1.20767 -3.65401 
1 -3.25685 1.91147 2.78422 
1 0.838009 0.237291 2.08879 
1 -2.02057 -1.92846 -0.342602 
1 -0.309029 -3.13559 -0.796249 
1 -2.30049 -0.798884 -0.0972802 
1 1.75214 0.872139 2.16224 
1 1.37878 -0.803111 -0.710404 
1 -0.0762613 -3.45724 -1.9674 
1 -2.26143 -1.19891 1.67254 
1 -2.19048 2.32321 -3.47937 
1 -1.24018 -1.53059 0.228452 
1 1.62302 -2.36198 2.25807 
1 2.12179 2.24491 1.0445 
1 -0.233004 2.88778 2.57818 
1 -2.51587 -0.902562 -2.18054 
1 -0.861555 -2.06261 1.51422 
1 0.954169 1.3007 2.81543 
1 -2.58831 -0.270853 -3.37549 
1 1.77277 3.07076 3.64354 
1 3.29996 2.86954 -0.160469 
1 -2.95174 -2.92889 3.41418 
1 -3.25356 -1.56329 1.31252 
1 1.28127 0.679219 0.432359 
1 -0.463592 3.17271 3.58634 
1 -0.0824914 -1.00778 1.70705 
1 -0.598248 2.87236 -1.38081 
1 2.45609 2.81485 -0.982406 
1 1.4631 3.43512 2.62874 
1 -3.12302 -1.81607 -2.07669 
1 -1.35817 -0.500505 0.395667 
1 3.56767 -3.69357 -1.59088 
1 -2.29857 -2.69434 0.472901 
1 -3.03036 -3.37098 -0.0999939 
1 -2.61114 -0.602626 0.890404 
1 -0.0688275 -0.690492 3.71599 
1 1.30896 -0.529411 -1.7867 
1 -2.2071 -2.9687 -0.660679 
1 0.659448 -0.364102 1.18769 
1 1.31794 2.78596 1.54447 
1 2.6524 3.70721 2.24756 
1 -2.34673 -0.592568 -1.16829 
1 2.98211 -2.14357 -1.21666 
1 -1.73116 -1.82342 -3.49433 
1 -3.22735 -1.91812 3.60694 
1 -0.953344 0.475168 0.906333 
1 -1.77992 -0.843226 -3.01236 
1 0.307843 3.34124 -1.09559 
1 1.5268 1.71975 0.25557 
1 2.65112 2.45659 3.57746 
1 -0.351442 0.0864042 -1.47291 
1 -0.0170754 2.43069 -3.10863 
1 0.507342 1.81972 -0.251152 
1 -2.91278 0.802522 0.804017 
1 -1.60398 2.59846 -1.68385 
1 -1.60242 -2.83829 1.54593 
1 1.56791 -0.921304 1.25117 
1 -3.42316 -0.93198 -3.37532 
1 -3.16037 -0.192436 3.20254 
1 -0.648178 -2.99664 -2.74702 
1 -0.689436 0.162063 -0.0997199 
1 2.23175 2.73175 2.58695 
1 -1.1852 -2.71302 2.55459 
1 -3.03748 -2.34237 -0.317818 
1 3.74771 3.39466 1.76038 
1 1.3531 1.16071 -0.673251 
1 -0.79673 2.11512 2.09908 
1 -3.2008 -0.194392 -2.52748 
1 3.56771 -3.61543 3.23222 
1 -2.42649 0.884777 -0.30857 
1 -1.27292 1.2263 1.59433 
1 0.276715 2.24916 -1.20884 
1 2.52893 -0.143486 0.652987 
1 0.544425 -3.37279 -0.117767 
1 2.51676 1.68434 2.70087 
1 -1.90265 3.62759 0.744977 
1 -1.33322 2.58503 -0.67525 
1 0.0028312 0.427686 1.45825 
1 -2.87073 0.130783 1.6397 
1 1.92647 -3.25427 -2.44208 
1 0.363352 2.25119 1.64373 
1 -2.7788 3.6668 -2.32939 
1 3.61109 1.32167 1.00071 
1 1.14239 -1.54831 -3.64289 
1 3.05316 3.17863 -3.12278 
1 -1.01384 0.733841 -0.993405 
1 -1.98422 -2.60015 -2.86662 
1 3.84079 -1.57863 0.0956091 
1 0.116047 -2.78549 3.49647 
1 -0.283477 -2.12895 -0.0623068 
1 2.83747 -1.58711 -0.264003 
1 0.897454 -3.45655 3.57494 
1 -0.640706 1.529 -2.65915 
1 0.617858 -1.86012 2.23931 
1 1.75315 -3.19694 3.01624 
1 2.17058 -1.26357 3.67262 
1 -2.24255 1.26524 3.32983 
1 -0.516269 -0.319926 -2.76606 
1 -2.28767 1.71555 -1.67847 
1 -2.37049 -2.21866 1.96443 
1 0.822416 -2.36135 0.342244 
1 1.14741 2.53292 -2.45376 
1 -3.2947 2.78282 1.01502 
1 3.73166 -1.12828 3.06578 
1 -0.26788 -3.53062 2.84839 
1 -2.29621 1.0872 1.70149 
1 3.41454 0.411842 0.492489 
1 -2.25252 -2.06276 3.03319 
2 -0.362033 -2.58911 2.8192 
2 0.824229 0.570336 1.17927 
2 -2.65388 1.08429 -1.18086 
2 1.96868 0.562114 3.66137 
2 2.88798 0.188003 2.22503 
2 -2.28298 1.43294 -3.26662 
2 3.16159 -0.50245 -1.77805 
2 -0.781651 -3.66942 -1.36992 
2 -3.49466 -3.41036 1.66575 
2 -2.93194 -2.4967 2.61084 
2 2.60694 2.8378 0.4936 
2 -3.20731 -0.850886 0.310355 
2 -2.55615 -2.5161 -2.18681 
2 3.45629 -2.21168 -0.418639 
2 -1.42182 -2.97974 -2.31469 
2 0.657769 1.14252 -2.06819 
2 3.96318 3.24251 0.278534 
2 2.87759 0.124843 -0.148613 
2 0.019161 -3.59999 -3.64053 
2 0.614914 1.60261 3.54529 
2 -1.78002 0.690156 1.1207 
2 -1.90682 1.87247 1.54993 
2 2.65161 2.53612 -2.6138 
2 1.46313 -3.30053 2.22788 
2 -2.47244 3.14217 -3.02566 
2 -1.33429 0.00643582 -2.85375 
2 -0.873089 3.12273 -3.06384 
2 -2.08809 3.31117 -1.84601 
2 -0.858694 -1.64131 -0.590498 
2 -0.535463 -1.66701 -1.88691 
2 -1.64927 1.9634 3.38071 
2 -2.33756 -3.55878 3.34712 
2 2.37427 -1.78025 -1.86025 
2 0.848179 -1.12257 -2.29944 
2 -1.19128 -2.53841 -3.30187 
2 0.652038 0.981356 -0.0794058 
2 -0.752124 -2.93966 1.30495 
2 2.09396 0.600332 0.71356 
2 0.53507 -3.12662 0.772951 
2 1.883 -1.90078 -3.26625 
2 -2.97214 2.45259 3.47223 
2 -0.411029 0.169113 3.5098 
2 -2.61447 0.455509 3.51953 
2 1.23522 -3.51625 -3.05909 
2 -3.48567 0.362626 2.44727 
2 -1.91452 -1.11511 0.715909 
2 0.539376 1.36845 -1.04202 
2 0.387912 -1.59153 0.317171 
2 3.49709 -2.16248 1.23797 
2 1.16393 1.92621 1.30646 
2 -3.04375 -0.771453 1.65171 
2 -2.66525 -2.22106 1.14922 
2 -2.46653 -2.3149 -3.58789 
2 0.309282 -1.40655 -3.31227 
2 -3.41554 -1.07825 -2.47891 
2 -1.03193 1.35806 0.767355 
2 -0.899212 1.26799 2.37939 
2 0.0756454 -0.127098 -0.361959 
2 3.88743 0.575451 -2.63009 
2 2.24893 -2.10866 -0.686538 
2 0.87897 -1.44665 2.96438 
2 0.0312668 -0.208942 2.1807 
2 3.93869 2.16652 -2.42608 
2 2.94076 -3.51342 -3.55846 
2 1.46945 -0.329272 -2.63329 
2 -3.33482 2.51046 -0.714602 
2 -2.56766 1.44747 2.49245 
2 -0.820867 -1.02264 2.20032 
2 2.06758 -0.529029 -1.29225 
2 -2.73315 1.53652 0.207413 
2 2.35 -2.86745 2.36414 
2 0.747573 0.670598 3.52371 
2 1.95937 -1.33032 -0.264895 
2 2.50449 -1.93188 0.892738 
2 1.14631 -2.76918 -2.49648 
2 3.16504 0.881246 3.34071 
2 -0.430039 1.65656 -3.52497 
2 -0.00356214 -1.90937 1.60987 
2 -0.87681 -0.298497 -0.826522 
2 1.39112 -1.57871 1.86067 
2 2.15416 1.35363 -0.231751 
2 -2.81291 -1.49571 -0.42069 
2 3.48149 3.45894 2.58773 
2 0.128425 -2.7707 -1.44291 
2 -3.09087 3.019 -1.58243 
2 1.80873 1.21511 3.01036 
2 0.628915 -2.27037 -3.49908 
2 1.55051 -0.740828 -3.49023 
2 -1.79639 -1.09595 -1.64022 
2 3.30867 1.66474 0.128399 
2 1.9823 3.24868 1.90355 
2 -0.44774 2.04555 -1.70899 
2 2.27521 0.830616 -1.00887 
2 0.460717 3.03505 1.23132 
2 -0.569283 -1.2352 3.19464 
2 -2.18444 -1.28381 2.592 
2 -2.74334 -0.106191 -1.79132 
2 -1.34211 3.0491 1.20573 
2 2.64891 -3.55606 1.47758 
2 -0.986315 3.11133 2.19637 
