ITEM: TIMESTEP
253
ITEM: NUMBER OF ATOMS
500
ITEM: BOX BOUNDS xy xz yz pp pp pp
-3.7345 4.4814 0.7469
-3.7345 3.7345 0
-3.7345 3.7345 0
ITEM: ATOMS type x y z 
1 -2.97454 -2.57753 -2.95325 
1 -2.56373 -3.50094 -3.22848 
2 -2.39555 -2.3149 -3.58789 
1 -1.9275 -2.60015 -2.86662 
2 -1.38408 -2.97974 -2.31469 
2 -1.13147 -2.53841 -3.30187 
1 -1.5006 -3.51001 -3.0806 
1 -0.611285 -2.99664 -2.74702 
1 0.463934 -3.03354 -2.96682 
2 0.0258866 -3.59999 -3.64053 
1 1.44524 -2.65794 -3.32907 
2 1.19458 -2.76918 -2.49648 
2 1.24613 -3.51625 -3.05909 
1 -2.54614 -1.56598 -3.03257 
2 -3.28273 -1.07825 -2.47891 
1 -3.28304 -0.93198 -3.37532 
1 -0.965443 -2.07533 -2.51828 
1 -1.63561 -1.82342 -3.49433 
1 -1.89762 -1.77695 -2.22197 
1 -1.63536 -0.843226 -3.01236 
1 -0.972846 -1.05599 -2.22163 
1 -0.698536 -1.29245 -3.3318 
1 -0.122399 -2.14491 -3.19557 
2 0.702122 -2.27037 -3.49908 
1 0.89856 -1.9312 -2.69342 
2 0.425679 -1.40655 -3.31227 
1 0.0477288 -1.28542 -2.54245 
1 1.92238 -2.20783 -2.45287 
2 1.97469 -1.90078 -3.26625 
2 0.978776 -1.12257 -2.29944 
1 1.74664 -1.20503 -2.73862 
1 1.2517 -1.54831 -3.64289 
1 -2.41512 -0.270853 -3.37549 
1 -3.0238 -0.194392 -2.52748 
1 -2.63997 0.748132 -3.13152 
1 -0.94428 -0.298145 -3.65831 
2 -1.14724 0.00643582 -2.85375 
1 -1.90119 0.0267863 -2.39245 
1 -1.64454 0.471997 -3.4106 
1 -0.505099 0.629051 -3.24198 
1 -0.34554 -0.319926 -2.76606 
1 0.226369 0.606946 -2.41095 
1 0.468281 0.234985 -3.35842 
1 0.90601 -0.697513 -3.06563 
2 1.63971 -0.329272 -2.63329 
2 1.70019 -0.740828 -3.49023 
1 1.28525 0.426289 -2.43076 
1 1.51415 0.10852 -3.43521 
1 -2.53615 1.69385 -2.60602 
2 -2.0246 1.43294 -3.26662 
1 -1.70075 1.05552 -2.51213 
1 -0.377531 1.529 -2.65915 
1 -1.15835 1.40912 -3.43496 
2 -0.160486 1.65656 -3.52497 
1 0.598732 1.32901 -3.14267 
1 1.54301 1.48605 -2.61595 
1 1.61331 1.20767 -3.65401 
2 -2.49523 -2.5161 -2.18681 
1 -2.86958 -2.60257 -1.37241 
1 -2.8692 -3.67364 -1.2382 
1 -2.19332 -3.38296 -2.19616 
1 -1.82325 -2.61538 -1.59377 
1 -0.810317 -2.81607 -1.65966 
2 -0.778397 -3.66942 -1.36992 
1 0.0395288 -2.33422 -2.16984 
1 -0.0623983 -3.45724 -1.9674 
2 0.176615 -2.7707 -1.44291 
1 0.722007 -3.40207 -1.20344 
1 0.959917 -3.62227 -2.21508 
1 1.76453 -3.59177 -1.41227 
1 0.98619 -2.4815 -1.71225 
1 -3.0271 -1.81607 -2.07669 
1 -2.37427 -0.902562 -2.18054 
1 -3.42304 -1.7098 -1.02512 
1 -2.33635 -1.63293 -1.25474 
1 -1.18498 -1.77721 -1.40274 
2 -1.66446 -1.09595 -1.64022 
1 -1.31605 -0.995689 -0.716662 
2 -0.432088 -1.66701 -1.88691 
1 -0.223812 -2.0659 -1.1306 
1 -0.388882 -0.992778 -1.29986 
1 0.523612 -1.4708 -1.62577 
1 1.4929 -1.8792 -0.694045 
1 1.56683 -1.55029 -1.73936 
2 -2.56192 -0.106191 -1.79132 
1 -3.24059 -0.749338 -1.62548 
1 -2.18963 -0.592568 -1.16829 
1 -2.70925 0.25826 -1.01076 
1 -1.21592 -0.28182 -1.55806 
2 -0.70501 -0.298497 -0.826522 
1 -0.839878 0.545364 -2.18436 
1 -1.74456 0.635891 -1.47 
1 0.509527 -0.384443 -2.13547 
1 0.585664 -0.510326 -1.07036 
1 0.910313 0.533319 -1.43812 
1 -0.160397 0.0864042 -1.47291 
1 1.46921 -0.529411 -1.7867 
1 1.86218 0.218893 -1.12344 
1 -2.65697 0.755764 -2.0183 
2 -2.41295 1.08429 -1.18086 
1 -2.01517 1.71555 -1.67847 
1 -1.46268 1.55128 -0.796293 
1 -0.790427 0.733841 -0.993405 
1 -0.937786 1.55749 -1.74426 
2 0.90162 1.14252 -2.06819 
1 0.0928437 1.20696 -1.59266 
2 0.794524 1.36845 -1.04202 
1 2.11013 1.06548 -1.79999 
1 1.40869 1.77393 -1.57953 
1 -2.96787 -2.34237 -0.317818 
1 -2.16881 -2.9687 -0.660679 
1 -3.01218 -3.37098 -0.0999939 
1 -3.27847 -2.55369 0.709914 
1 -2.24657 -2.69434 0.472901 
1 -1.10714 -2.52297 -0.586532 
1 -1.06132 -2.52461 0.584594 
1 -1.54052 -3.3344 0.0751336 
1 0.614044 -2.48878 -0.6943 
1 -0.279083 -3.13559 -0.796249 
1 0.56251 -3.37279 -0.117767 
1 -0.420603 -3.23766 0.248176 
1 1.60081 -2.96162 -0.493984 
1 0.891073 -2.36135 0.342244 
1 1.41599 -3.21528 0.574557 
1 -3.1135 -0.762071 -0.575191 
2 -2.70097 -1.49571 -0.42069 
1 -2.53851 -1.62269 0.464659 
2 -3.06313 -0.850886 0.310355 
1 -1.93027 -1.92846 -0.342602 
2 -0.754035 -1.64131 -0.590498 
1 -1.12999 -1.53059 0.228452 
1 -0.2032 -2.12895 -0.0623068 
1 -0.333937 -0.892728 -0.22726 
1 0.529017 -1.44441 -0.550494 
2 0.495061 -1.59153 0.317171 
1 -0.221353 -1.47072 0.784449 
1 1.52535 -0.803111 -0.710404 
2 2.07958 -1.33032 -0.264895 
1 1.37995 -1.3994 0.270864 
1 -2.15371 -0.798884 -0.0972802 
1 -2.91021 0.0176313 0.114318 
1 -1.89488 0.235856 0.449437 
1 -0.494608 0.162063 -0.0997199 
1 -1.19648 -0.500505 0.395667 
1 -1.52423 0.0423195 -0.549151 
2 0.256016 -0.127098 -0.361959 
1 0.641938 -0.686265 0.183948 
1 0.250251 0.744322 -0.643546 
1 0.470451 0.350737 0.424356 
1 1.69651 -0.356012 0.314198 
1 1.1043 0.170219 -0.407952 
1 1.50196 0.679219 0.432359 
1 -2.19552 0.884777 -0.30857 
1 -2.57188 1.77528 -0.684952 
2 -2.4696 1.53652 0.207413 
1 -0.341447 1.72074 -0.819735 
1 -1.68536 1.46136 0.743359 
1 -1.15768 0.92831 0.0236726 
2 0.88783 0.981356 -0.0794058 
1 0.785052 1.81972 -0.251152 
1 -0.0948792 1.19912 0.236788 
1 1.59786 1.16071 -0.673251 
1 1.79951 1.71975 0.25557 
1 -2.64423 -3.10552 1.44664 
2 -3.47846 -3.41036 1.66575 
1 -3.36013 -3.69628 0.842706 
1 -1.55761 -2.83829 1.54593 
2 -0.712383 -2.93966 1.30495 
1 -1.18028 -3.66038 0.984331 
1 -0.086335 -3.53331 1.24121 
1 -0.00603605 -2.48889 0.925665 
2 0.565463 -3.12662 0.772951 
1 0.881788 -2.59858 1.47925 
2 -2.58958 -2.22106 1.14922 
1 -3.145 -1.56329 1.31252 
1 -2.13465 -1.19891 1.67254 
2 -2.8956 -0.771453 1.65171 
1 -0.777961 -2.06261 1.51422 
1 -1.73875 -1.91921 1.06461 
2 -1.78355 -1.11511 0.715909 
1 -1.07429 -1.06397 1.33544 
2 0.0876942 -1.90937 1.60987 
1 0.0538447 -1.00778 1.70705 
1 0.79864 -1.55058 1.17743 
1 1.75973 -2.04438 1.15791 
1 1.70857 -0.921304 1.25117 
1 -2.45454 -0.602626 0.890404 
1 -2.67747 0.130783 1.6397 
1 -0.610771 -0.189441 1.78802 
1 -1.62381 -0.141085 1.39972 
2 -1.55879 0.690156 1.1207 
1 -0.742861 0.475168 0.906333 
1 0.827968 -0.364102 1.18769 
1 -0.204693 -0.420845 0.809539 
1 0.210941 0.427686 1.45825 
2 1.03947 0.570336 1.17927 
1 1.79957 0.15325 1.31075 
1 -2.68592 0.802522 0.804017 
1 -2.05513 1.0872 1.70149 
1 -2.62977 1.81147 1.0276 
2 -0.777298 1.35806 0.767355 
1 -1.02488 1.2263 1.59433 
1 -0.0313004 1.42865 1.38446 
1 0.842022 1.38191 0.752749 
1 1.03743 1.25284 1.76732 
1 1.9743 1.25653 1.1934 
1 2.23135 0.725896 -2.9253 
1 1.9334 -3.07056 1.52771 
1 0.983178 -3.62318 1.59324 
1 2.00968 -2.46272 -1.41749 
1 2.09102 -2.17485 0.162819 
1 2.29999 0.479765 -0.183748 
1 1.95048 -3.25427 -2.44208 
1 2.02979 -3.51814 -3.46471 
1 2.5586 -2.58306 -3.24053 
1 3.01059 -3.37762 -2.64364 
1 2.97199 -2.33384 -2.29566 
1 3.58279 -2.79771 -3.49305 
2 2.95181 -3.51342 -3.55846 
1 2.75274 -1.49683 -2.88815 
1 2.4192 -0.406772 -3.03151 
1 3.44206 -0.603117 -2.64457 
1 3.22397 0.448616 -2.53113 
1 2.97909 0.34033 -3.56841 
1 2.89168 1.49592 -2.56719 
1 3.72862 1.10281 -3.27185 
1 2.73768 -3.12573 -1.64038 
2 2.47198 -1.78025 -1.86025 
1 2.37651 -1.35212 -1.10022 
1 2.52762 -0.905338 -2.03534 
1 3.43305 -1.41595 -1.94121 
1 3.06165 -2.14357 -1.21666 
1 3.35594 -0.873975 -0.982925 
2 2.22785 -0.529029 -1.29225 
1 2.30025 0.087251 -2.08785 
1 2.91112 0.0677969 -1.19981 
2 3.32319 -0.50245 -1.77805 
1 3.87982 0.230159 -1.73671 
2 2.50346 0.830616 -1.00887 
1 2.58923 1.71839 -1.04041 
1 3.9632 1.33476 -2.24961 
1 3.16869 1.04518 -1.58759 
1 2.71902 -2.79361 -0.42084 
2 3.53243 -2.21168 -0.418639 
1 2.47213 -3.07342 0.639081 
1 3.21225 -2.32031 0.430754 
1 3.37954 -3.38624 0.118958 
2 2.33022 -2.10866 -0.686538 
1 2.40823 -1.16563 0.530513 
1 2.94484 -1.58711 -0.264003 
1 2.5188 -0.546301 -0.390042 
2 2.3107 0.600332 0.71356 
1 3.49439 -0.629187 0.0964421 
1 2.70848 -0.143486 0.652987 
2 3.07056 0.124843 -0.148613 
1 3.79409 0.15972 -0.624637 
1 3.62186 0.411842 0.492489 
2 2.40856 1.35363 -0.231751 
1 3.20144 1.01219 -0.449903 
2 3.57863 1.66474 0.128399 
1 2.86835 1.27385 0.556182 
1 3.36962 -3.08895 1.18198 
1 2.77431 -2.39117 1.61092 
2 2.65783 -3.55606 1.47758 
1 2.43912 -1.42123 1.77409 
2 3.57569 -2.16248 1.23797 
2 2.59462 -1.93188 0.892738 
1 3.31735 -1.37141 0.980075 
1 3.01643 -0.488721 1.62405 
1 2.77473 0.594872 1.48584 
1 3.77512 0.384875 1.61642 
1 3.8639 1.32167 1.00071 
1 3.03541 1.6417 1.65304 
1 -3.23621 1.11356 -0.0849582 
1 -3.59849 -2.80974 -2.12357 
1 -2.83312 1.67181 -3.62995 
1 3.20753 -0.704305 -3.69957 
2 4.10293 0.575451 -2.63009 
1 4.16903 1.11483 -1.18014 
1 3.76245 -1.81865 -2.90965 
1 3.97028 0.103175 -3.40882 
1 3.70918 -2.95491 -0.840608 
1 3.56971 -3.69357 -1.59088 
1 3.94858 -1.57863 0.0956091 
1 3.98494 -0.493965 1.04669 
1 -1.01281 3.67469 -1.30722 
2 -1.62647 1.87247 1.54993 
1 -2.98533 3.62819 -3.2156 
1 -1.40295 2.05576 -2.60087 
1 2.27636 2.15837 -3.11454 
2 -2.12861 3.14217 -3.02566 
1 -2.8241 2.58886 -3.1097 
1 -1.8876 2.32321 -3.47937 
1 -2.40874 3.6668 -2.32939 
1 -1.33268 3.12783 -2.64217 
1 -0.720255 2.35478 -3.46696 
1 -0.450578 2.55927 -2.37964 
2 -0.530227 3.12273 -3.06384 
1 0.291184 2.43069 -3.10863 
1 1.31649 3.34344 -3.11327 
1 0.293757 3.49245 -2.97363 
1 1.26261 2.27395 -3.48264 
1 1.46078 2.53292 -2.45376 
1 2.35298 3.18079 -2.74915 
1 -2.98798 2.11942 -1.58813 
1 0.561674 1.9096 -2.23947 
2 -0.158737 2.04555 -1.70899 
1 -2.24511 2.64909 -2.20487 
2 -1.73581 3.31117 -1.84601 
1 -2.14805 2.7245 -1.01626 
2 -2.75319 3.019 -1.58243 
1 -0.384981 3.63515 -2.16125 
1 -1.28733 2.59846 -1.68385 
1 -1.01724 2.58503 -0.67525 
1 -0.267905 2.87236 -1.38081 
1 0.558283 2.95654 -2.09498 
1 0.575898 2.24916 -1.20884 
1 0.66163 3.34124 -1.09559 
1 2.37139 2.29352 -1.96055 
1 1.60614 2.98242 -1.49513 
1 -3.09598 2.18197 0.128102 
1 -1.83274 2.16797 -0.021028 
1 -0.817161 1.93297 0.104586 
1 1.77812 2.27729 -0.678877 
1 -2.94148 3.39064 -0.610317 
2 -3.02257 2.51046 -0.714602 
1 -1.53455 3.62759 0.744977 
1 -2.34075 3.02011 0.152132 
1 -1.50285 3.43404 -0.373098 
1 -0.250759 3.54206 -0.537043 
1 -0.765245 2.98437 0.343021 
1 0.0414135 2.5778 -0.330887 
1 1.07982 2.93841 -0.242709 
1 0.335529 3.21137 0.493705 
1 1.12613 2.41593 0.669104 
1 1.4059 3.4451 0.687587 
1 1.99615 3.42694 -0.580504 
1 2.07894 2.79779 0.242175 
1 -0.883171 2.17781 1.11918 
1 0.0853094 2.18747 0.665229 
2 1.44697 1.92621 1.30646 
1 -1.83453 2.58793 0.995149 
1 -2.23927 3.29977 1.72091 
1 -2.96883 2.78282 1.01502 
2 -1.00293 3.0491 1.20573 
1 -0.121806 2.93317 1.46981 
1 -1.17669 3.66654 1.79954 
2 0.799195 3.03505 1.23132 
1 0.662636 2.25119 1.64373 
1 2.42076 2.24491 1.0445 
1 2.55011 3.39971 1.0623 
1 1.64396 2.78596 1.54447 
1 3.49404 3.71004 -0.810741 
1 2.85608 3.59115 0.0270996 
1 3.62864 2.1471 -3.06753 
2 2.96515 2.53612 -2.6138 
1 4.13653 3.01552 -2.30917 
1 3.39882 3.17863 -3.12278 
1 2.78356 2.81485 -0.982406 
1 3.85499 2.86231 -1.25803 
1 3.14382 3.25095 -2.00663 
1 3.43707 2.17891 -1.94064 
1 2.82796 2.13386 -0.0706755 
1 3.70233 1.94312 -0.731857 
1 3.63016 2.86954 -0.160469 
2 2.93556 2.8378 0.4936 
1 4.03783 2.14763 1.76227 
1 3.50881 2.27614 0.785784 
1 3.61444 3.38432 0.803793 
1 3.15076 2.80099 1.66746 
1 4.10417 3.39466 1.76038 
1 -1.23527 3.22593 -3.71791 
2 4.23374 2.16652 -2.42608 
2 4.31203 3.24251 0.278534 
1 2.6914 1.3486 3.73261 
1 -3.38356 -2.49869 1.84978 
1 -2.2947 -2.21866 1.96443 
1 -0.866971 -3.5934 1.98965 
1 -0.136013 -2.73372 1.97378 
2 1.48483 -3.30053 2.22788 
2 -0.685274 -1.02264 2.20032 
2 1.49891 -1.57871 1.86067 
1 1.15391 -0.819313 2.13667 
2 0.207545 -0.208942 2.1807 
1 1.0366 0.237291 2.08879 
1 -3.02909 1.18246 1.97208 
1 1.98248 0.872139 2.16224 
1 -3.19583 -3.37615 2.47213 
2 -2.87005 -2.4967 2.61084 
1 -2.91146 -2.92889 3.41418 
2 -2.32878 -3.55878 3.34712 
1 -2.17907 -3.0642 2.57182 
1 -1.77839 -2.8724 3.57094 
1 -1.13412 -2.71302 2.55459 
1 -0.788477 -3.19968 3.6757 
1 -0.257686 -3.53062 2.84839 
2 -0.304764 -2.58911 2.8192 
1 0.163498 -2.78549 3.49647 
1 0.689243 -3.07348 2.49511 
1 0.911352 -3.45655 3.57494 
1 1.06674 -2.33475 3.14176 
1 1.78003 -3.19694 3.01624 
1 1.69165 -2.36198 2.25807 
1 -3.13653 -1.91812 3.60694 
1 -2.16893 -2.06276 3.03319 
1 -2.92784 -1.57254 2.43015 
1 -2.41291 -1.09313 3.39212 
2 -2.06191 -1.28381 2.592 
1 -0.794187 -2.12168 3.4034 
1 -1.38183 -1.70024 2.27846 
1 -1.32487 -1.15365 3.20987 
2 -0.444318 -1.2352 3.19464 
1 0.711577 -1.86012 2.23931 
1 -0.338969 -1.78028 2.4568 
1 0.247366 -1.73779 3.3689 
1 0.300161 -0.935942 2.71448 
2 0.993362 -1.44665 2.96438 
1 1.84039 -1.37613 2.70166 
1 -2.47814 -0.552469 2.40489 
1 -2.98326 -0.192436 3.20254 
2 -2.40497 0.455509 3.51953 
1 -2.39358 0.55208 2.60257 
2 -3.28081 0.362626 2.44727 
1 -1.81008 -0.130594 3.17903 
1 -1.44603 -0.635725 2.30862 
1 -0.542267 -0.376953 2.84397 
1 -1.34642 0.469916 2.27766 
1 -0.924576 0.643119 3.23467 
1 0.0833729 -0.690492 3.71599 
2 -0.215849 0.169113 3.5098 
1 -0.182386 0.570639 2.43395 
2 0.967828 0.670598 3.52371 
1 0.513873 0.0774046 3.01997 
1 1.22055 -0.64254 3.25806 
1 2.16072 -0.22639 2.25857 
1 1.58939 0.371176 3.00951 
2 -2.30856 1.44747 2.49245 
1 -1.99256 1.26524 3.32983 
1 -3.18418 0.848345 3.23962 
1 -1.43782 1.63229 2.46366 
2 -0.649088 1.26799 2.37939 
1 -0.59134 1.6701 3.14729 
1 0.172356 1.01449 3.3977 
1 0.268658 1.56751 2.45575 
1 1.20593 1.3007 2.81543 
2 0.881769 1.60261 3.54529 
2 2.05621 1.21511 3.01036 
2 2.18351 0.562114 3.66137 
1 3.52257 -1.56121 2.02553 
2 3.08411 0.188003 2.22503 
2 2.39335 -2.86745 2.36414 
1 2.79838 -2.94458 3.21784 
1 3.21599 -3.15801 2.24373 
1 2.06665 -2.22669 3.37332 
1 2.29413 -1.26357 3.67262 
1 2.88944 -0.898674 2.68146 
1 2.75078 -2.03968 2.60888 
1 3.17966 -1.84981 3.61137 
1 2.27944 -0.292084 3.35776 
1 2.6507 0.607804 2.90429 
1 3.49519 0.0337175 2.99693 
1 2.7877 1.68434 2.70087 
1 3.53276 0.995977 2.4571 
2 3.39582 0.881246 3.34071 
1 3.64959 1.73459 3.35508 
1 3.57367 -3.61543 3.23222 
1 3.74352 -2.42323 2.86494 
1 3.86197 -1.12828 3.06578 
1 3.94008 -0.500156 2.18847 
1 3.02449 3.70721 2.24756 
2 2.33146 3.24868 1.90355 
1 1.94523 1.92674 2.07046 
1 -0.69377 3.7289 2.89818 
1 -2.35014 2.18199 1.95653 
1 -0.504249 2.11512 2.09908 
1 -1.3777 2.63574 1.95817 
2 -0.644024 3.11133 2.19637 
1 0.899554 3.33286 2.06531 
1 -2.97455 1.91147 2.78422 
2 -1.36438 1.9634 3.38071 
1 0.320797 2.19508 3.34503 
1 1.95338 2.06006 3.22314 
1 -1.99233 2.35454 2.93925 
1 -2.82612 2.99639 2.62317 
1 -1.70661 3.34991 2.67842 
2 -2.66278 2.45259 3.47223 
1 -2.29532 3.26437 3.55607 
1 -0.919039 2.64087 2.93697 
1 -0.118231 3.17271 3.58634 
1 0.968208 3.13677 3.35239 
1 0.0981099 2.88778 2.57818 
1 1.13659 2.39188 2.60122 
1 1.82158 3.43512 2.62874 
1 2.11303 3.07076 3.64354 
1 2.55507 2.73175 2.58695 
1 2.96067 2.45659 3.57746 
2 3.84116 3.45894 2.58773 
1 3.59897 2.57497 2.62181 
1 4.04076 2.82634 3.55007 
1 3.25383 3.4474 3.24318 
