ITEM: TIMESTEP
1052
ITEM: NUMBER OF ATOMS
500
ITEM: BOX BOUNDS xy xz yz pp pp pp
-3.7345 4.4814 0.7469
-3.7345 3.7345 0
-3.7345 3.7345 0
ITEM: ATOMS type x y z 
1 -0.0808292 2.48743 -0.305781 
1 0.93417 0.604717 -1.42787 
1 2.32455 0.487424 -0.15619 
1 -0.0675197 -2.46595 0.903683 
1 3.18734 0.992474 -0.500347 
1 3.40688 -0.646343 -2.6197 
1 0.671634 -0.516075 -1.17409 
1 -1.34987 -3.45501 -0.0301359 
1 2.39381 -1.3464 -1.10125 
1 3.16278 -0.715311 -3.67267 
1 -2.4627 1.6663 1.09219 
1 1.369 -1.37192 0.252273 
1 0.210907 0.757338 -0.659846 
1 -0.694441 3.6685 2.84971 
1 3.18395 2.82538 1.62046 
1 -0.822526 2.33854 -3.4471 
1 3.91724 1.33465 -2.31564 
1 2.54915 -2.59423 -3.27719 
1 3.11878 3.22155 -2.01258 
1 2.8316 -3.13307 -1.6277 
1 -2.68647 0.416599 -0.994454 
1 1.06235 -3.56343 1.54247 
1 1.27583 -0.632871 3.18831 
1 -2.86508 2.58437 -3.11831 
1 2.72255 -2.02385 2.55894 
1 -0.337114 -0.947268 -0.284798 
1 3.13005 1.53101 1.58234 
1 1.74543 -1.1929 -2.78026 
1 0.078189 2.24678 0.692396 
1 -0.89972 1.95924 0.234491 
1 -1.22228 1.40203 -3.39144 
1 -1.21184 -3.59473 0.995317 
1 -2.16127 2.60399 -0.978535 
1 -3.45303 -1.76013 -0.969147 
1 -0.936656 0.637285 3.35634 
1 0.829842 -2.53716 1.43814 
1 2.52666 -0.553874 -0.367591 
1 1.30565 3.45307 -3.03266 
1 -1.38372 -3.54741 -1.13076 
1 1.69122 -0.327256 0.318841 
1 2.613 3.45687 1.00344 
1 0.0467921 -2.31534 -2.20462 
1 0.877769 3.24952 3.48313 
1 -2.35179 -0.54093 2.4183 
1 1.57707 1.55601 -2.59676 
1 -3.19066 -3.39491 2.41766 
1 0.657654 1.23665 -3.04543 
1 0.145051 3.46409 -0.545448 
1 2.4888 -0.941528 -2.06499 
1 -1.80903 0.670004 -1.51011 
1 3.93815 -0.477641 2.18837 
1 -1.49732 -3.50594 -3.04925 
1 0.441787 0.391578 0.461512 
1 0.231314 -0.819605 2.76727 
1 2.02922 -2.20105 3.31524 
1 -0.143508 2.95137 1.4783 
1 2.96479 -2.33834 -2.33335 
1 1.39151 3.49801 0.671579 
1 2.33393 2.12891 -2.01859 
1 1.01039 -2.32986 3.1144 
1 3.53428 2.24765 0.763182 
1 -0.127377 -2.07311 -3.18638 
1 4.0009 -0.517929 1.06297 
1 2.8989 1.48367 -2.65416 
1 -0.29618 -3.20676 0.184935 
1 1.4216 -3.10283 0.634217 
1 3.58223 -2.80053 -3.50679 
1 3.15194 -1.86049 3.57631 
1 2.38366 -0.375361 -3.01331 
1 2.57045 1.7179 -1.03863 
1 -1.22573 -0.239273 -1.60083 
1 2.96649 -2.325 1.56846 
1 -3.27843 -0.812035 -1.6377 
1 1.04115 -0.816361 2.1151 
1 3.20599 -3.18812 2.215 
1 0.757081 -1.49279 1.13857 
1 -2.3984 -1.52892 -1.23745 
1 0.0769067 1.54668 1.43994 
1 -1.39077 1.57619 2.48342 
1 1.03056 2.95671 -0.223873 
1 0.314175 3.2621 0.517381 
1 -2.92024 -1.4571 2.40641 
1 2.63152 0.608016 2.88103 
1 -0.803185 -2.11821 3.43354 
1 0.891994 -1.87765 -2.7229 
1 3.77602 -2.98468 -0.82585 
1 3.10355 -3.35892 -2.6297 
1 -2.99362 2.04848 -1.62115 
1 -0.828762 -3.57414 1.97728 
1 4.14637 3.05397 -2.30559 
1 0.883696 -3.31759 -1.22645 
1 -0.431406 -1.64655 2.48597 
1 -3.4409 -2.53591 1.7913 
1 1.71622 0.18602 1.3232 
1 1.52808 -1.86279 -0.704297 
1 -1.47003 1.30613 0.900357 
1 -0.723896 2.98227 0.413602 
1 4.04221 2.10274 1.7396 
1 -1.47544 -1.90207 2.33722 
1 -2.72561 0.772294 -3.1779 
1 -2.61055 -1.64795 -3.00141 
1 2.04103 -2.47123 -1.43392 
1 0.873017 1.44602 0.768563 
1 -3.63026 -2.735 -1.92278 
1 -0.70768 -0.120438 1.65234 
1 -2.6197 3.646 0.821217 
1 -1.70807 3.33423 2.66448 
1 0.228172 -1.68275 3.36047 
1 3.30258 3.49526 3.24307 
1 2.69699 0.536354 1.5436 
1 2.35579 3.21054 -2.7707 
1 -3.20101 0.841537 3.23981 
1 3.40094 -1.45198 -1.92546 
1 -1.57008 0.0445878 -0.520029 
1 -1.38331 3.38701 -0.405241 
1 3.53137 -1.5111 2.04283 
1 2.6687 1.36087 3.697 
1 -1.31682 -0.826162 2.28485 
1 3.84271 0.105248 -0.642721 
1 4.44463 3.59829 -3.29177 
1 -0.871215 1.83306 -1.63529 
1 3.47649 0.00715791 3.02057 
1 2.79914 -2.91637 3.19176 
1 1.11289 2.4696 0.69842 
1 1.85561 1.94696 2.09604 
1 -0.814158 -3.33126 3.64083 
1 3.29757 -3.21456 1.15346 
1 2.25026 -0.242411 3.36249 
1 -1.76984 2.50204 1.00503 
1 -2.58304 1.6954 -2.59674 
1 -2.57514 -3.47108 -3.27208 
1 1.99703 2.10007 3.24553 
1 2.83121 3.53339 -0.0615172 
1 -1.37697 2.5824 2.00462 
1 0.537961 0.094376 3.21599 
1 -1.22107 3.27915 3.71331 
1 1.8054 -1.37392 2.61808 
1 2.27396 2.20101 -3.14216 
1 -1.94624 0.00201371 -2.42279 
1 0.241197 3.37681 -3.01132 
1 0.148931 1.01254 3.51841 
1 1.75555 2.30199 -0.685805 
1 -0.262545 -1.45879 0.743671 
1 1.99231 1.02177 -1.75826 
1 0.179839 1.22737 2.46459 
1 0.995139 3.4239 2.03024 
1 -0.0847615 -3.46635 1.22878 
1 3.60681 2.14856 -3.10999 
1 -0.480462 2.65824 -2.41998 
1 3.29892 -1.34936 0.995785 
1 -2.81887 -0.0370208 0.0561669 
1 1.93564 -2.17132 -2.47752 
1 -2.91293 1.6911 -3.63705 
1 2.13125 -2.15197 0.159698 
1 2.83644 -0.890797 2.68155 
1 -2.46364 -1.12339 3.41574 
1 2.73537 -1.49451 -2.94779 
1 2.99732 -0.503778 1.6524 
1 2.01559 -3.50906 -3.47283 
1 -1.39329 2.0758 -2.55894 
1 -2.19147 3.2649 1.7038 
1 -1.04452 -2.55075 -0.621041 
1 2.39947 0.0914674 -2.02509 
1 0.141428 1.38624 -1.54714 
1 1.45548 -2.61185 -3.37372 
1 -0.815873 -1.30039 -3.32406 
1 1.35126 1.80789 -1.55489 
1 -1.77345 -0.183502 1.57832 
1 2.89823 1.20278 0.542837 
1 -0.450059 1.59142 -0.693747 
1 -1.74108 0.510109 -3.41324 
1 -1.0894 -1.07637 -2.26654 
1 -0.831617 0.784928 -2.03908 
1 -2.81166 2.9822 2.62093 
1 3.55366 0.965434 2.44981 
1 -1.55925 1.46521 -0.809038 
1 3.83383 0.184898 -1.73402 
1 1.0703 -3.50437 -2.23072 
1 1.25251 2.34724 -3.47154 
1 -1.93947 -1.81644 -2.18214 
1 -1.31271 0.365651 2.39583 
1 2.38682 -1.14377 0.53812 
1 -3.08488 2.1321 0.109308 
1 -1.17809 -1.78576 -1.43727 
1 3.42837 -3.45278 0.096235 
1 2.02699 3.08351 -1.64763 
1 1.57914 -1.50768 -1.74068 
1 -0.195198 -2.04491 -1.18569 
1 -2.63118 -3.16005 1.45568 
1 0.724247 -3.0146 2.40732 
1 -2.37484 0.536854 2.62762 
1 0.51157 -1.45337 -1.70665 
1 2.42472 -1.42698 1.71272 
1 -1.13898 -1.0232 1.22757 
1 1.03613 1.2737 1.79105 
1 3.18741 -2.36156 0.460429 
1 3.74327 -1.79875 -2.90126 
1 1.05749 0.191109 -0.409039 
1 -0.340533 3.69595 -2.12417 
1 -1.96697 1.8761 0.117976 
1 2.78367 -2.78893 -0.433087 
1 -1.69682 0.267399 0.611645 
1 0.60129 1.99025 -2.30627 
1 3.52022 -0.660174 0.0898926 
1 3.06389 1.01589 -1.6723 
1 -1.98909 2.33351 2.92618 
1 1.96163 3.35994 -0.624178 
1 -1.12821 3.62744 1.81454 
1 -0.403833 -0.970768 -1.37942 
1 -0.823527 2.1225 1.27401 
1 4.03434 2.79213 3.51374 
1 0.338197 2.14682 3.12102 
1 0.562972 -1.40444 -0.61028 
1 -2.72516 0.698276 -2.10741 
1 3.71187 -2.40768 2.81247 
1 3.67078 1.93344 -0.749948 
1 -2.29201 2.67327 -2.25256 
1 0.468991 2.99141 -2.04043 
1 -1.74656 1.05846 -2.5118 
1 -2.79864 -2.5745 -1.29452 
1 2.20879 0.724263 -2.90157 
1 -0.744448 -0.401667 3.10958 
1 2.11324 -3.01775 1.52166 
1 2.91591 0.113609 -1.10287 
1 -2.88717 3.29873 -0.606768 
1 2.07515 2.80723 0.267597 
1 -0.213642 0.249157 2.50564 
1 3.33906 -0.863659 -1.00269 
1 -0.0177868 -1.17323 -2.58232 
1 2.02229 -0.254243 2.28013 
1 -1.3196 -0.984643 -0.777615 
1 1.52468 0.494742 3.06797 
1 0.514039 -2.932 -2.96698 
1 1.27381 0.47728 -2.43475 
1 -2.1779 -3.07069 2.54669 
1 -0.223086 -0.42591 0.76243 
1 -0.493559 0.700446 -3.12282 
1 0.90933 -0.711239 -3.12766 
1 -2.77809 -3.68878 -1.18895 
1 -2.15557 -3.41012 -2.13773 
1 -2.27731 3.2391 3.54444 
1 0.552157 -0.330103 -2.21042 
1 1.72821 -2.03963 1.13066 
1 -1.76385 -1.97924 1.05086 
1 -1.41478 3.14462 -2.7165 
1 -0.594622 1.64478 3.19169 
1 1.97356 1.27486 1.20237 
1 -2.22156 2.90639 0.115817 
1 3.22711 0.422195 -2.57578 
1 1.2454 2.61458 2.69448 
1 3.39722 2.15717 -1.92226 
1 3.73326 0.442517 1.53571 
1 -1.00824 -2.12416 -2.55697 
1 0.425733 0.204216 -3.20248 
1 3.67771 3.31358 0.748456 
1 -3.2971 -2.73865 0.703618 
1 -1.07852 -2.60134 0.563483 
1 3.94248 0.0895164 -3.44961 
1 3.60479 2.59593 2.58052 
1 -1.78007 -2.63533 -1.549 
1 3.87006 2.84549 -1.28383 
1 2.46271 -3.15074 0.526324 
1 3.68016 1.09877 -3.32755 
1 0.621183 -0.625392 0.130285 
1 -0.998921 -0.237712 -3.36389 
1 -2.36406 2.20629 1.95592 
1 -1.41076 -1.22861 3.23629 
1 -2.61569 1.6581 -0.709617 
1 -3.05292 -2.62115 -2.84722 
1 -1.81824 -2.93128 3.56373 
1 1.02965 -2.41364 -1.7623 
1 -0.751975 -2.81577 -1.69956 
1 -2.53141 -1.67121 0.445173 
1 2.94524 0.347309 -3.58104 
1 1.86065 0.195284 -1.06967 
1 0.660393 -2.44051 -0.729597 
1 4.19661 1.02059 -0.189017 
1 1.67679 -2.93394 -0.454701 
1 4.05103 1.11215 -1.26901 
1 1.49212 0.127876 -3.42218 
1 1.91125 -3.57258 -1.30774 
1 2.834 2.11473 -0.0587431 
1 3.5996 1.73274 3.28304 
1 -1.79312 -0.182789 3.2472 
1 -0.0328853 1.29163 0.226103 
1 0.206799 0.670321 -2.27982 
1 -0.176865 -2.66348 1.99808 
1 -2.98491 1.1467 1.95239 
1 -0.948151 2.6031 2.96461 
1 3.59292 3.70859 -0.784445 
1 -3.11467 -0.825018 -0.592165 
1 -1.10327 0.957028 -0.0156164 
1 1.59728 1.28056 -3.63544 
1 -2.96328 1.88766 2.77944 
1 0.98981 0.263981 2.17676 
1 -1.93777 -1.97388 -0.410785 
1 -0.155608 -3.14109 -0.876901 
1 -2.15929 -0.890708 -0.145833 
1 1.92279 0.882992 2.18343 
1 1.55196 -0.78684 -0.697165 
1 0.0418616 -3.44346 -2.01735 
1 -2.10382 -1.24114 1.68807 
1 -1.92137 2.28444 -3.46532 
1 -1.14405 -1.6196 0.168222 
1 1.6466 -2.35553 2.21908 
1 2.48105 2.21823 1.04313 
1 0.176763 3.01342 2.54231 
1 -2.39396 -0.906252 -2.17326 
1 -0.812682 -1.99473 1.50644 
1 1.16332 1.48757 2.86257 
1 -2.479 -0.244143 -3.39147 
1 2.03993 3.1139 3.64726 
1 3.65074 2.8307 -0.187485 
1 -2.97704 -2.93779 3.36763 
1 -3.10715 -1.55065 1.31843 
1 1.4858 0.710561 0.414305 
1 -0.167451 3.04303 3.54879 
1 -0.0279726 -1.01985 1.69245 
1 -0.339303 2.90473 -1.32648 
1 2.83992 2.78841 -0.957281 
1 1.90701 3.5121 2.59729 
1 -3.046 -1.83077 -2.03679 
1 -1.19519 -0.580104 0.268681 
1 4.4269 3.7324 -1.55929 
1 -2.18621 -2.8111 0.485708 
1 -2.9628 -3.46964 -0.0945125 
1 -2.42551 -0.626535 0.877833 
1 -0.00832663 -0.691355 -3.64652 
1 1.52733 -0.474641 -1.81381 
1 -2.12623 -3.00534 -0.59192 
1 0.758188 -0.323455 1.19967 
1 1.71315 2.8266 1.50081 
1 3.03231 3.70043 2.25795 
1 -2.20903 -0.49636 -1.18528 
1 3.08024 -2.17049 -1.22806 
1 -1.71328 -1.92016 -3.51952 
1 -3.20114 -1.93408 3.61895 
1 -0.623512 0.55016 0.824442 
1 -1.78519 -0.945892 -3.07617 
1 1.01347 3.30724 -1.21217 
1 1.81258 1.75163 0.268141 
1 2.95287 2.52915 3.55319 
1 -0.134112 0.0774519 -1.43503 
1 0.215973 2.24154 -3.2718 
1 0.819483 1.86875 -0.221439 
1 -2.66164 0.655631 0.837107 
1 -1.33947 2.81544 -1.68773 
1 -1.54925 -2.81593 1.67266 
1 1.6532 -0.897724 1.25307 
1 -3.3008 -0.939579 -3.37661 
1 -2.98358 -0.205838 3.15086 
1 -0.55129 -3.03774 -2.8218 
1 -0.479835 0.118574 -0.135258 
1 2.54509 2.69757 2.50706 
1 -1.0613 -2.80929 2.68294 
1 -2.96469 -2.41345 -0.250314 
1 4.15728 3.33138 1.72975 
1 1.612 1.17154 -0.648801 
1 -0.365041 2.12885 2.22676 
1 -3.08922 -0.231809 -2.54468 
1 3.58667 -3.60836 3.17998 
1 -2.18072 0.844659 -0.148444 
1 -0.806902 1.10653 1.74173 
1 0.540294 2.31998 -1.15447 
1 2.74475 -0.139615 0.653454 
1 0.690119 -3.31981 -0.148861 
1 2.74818 1.64406 2.61762 
1 -1.53718 3.57145 0.746756 
1 -1.11411 2.42621 -0.705062 
1 0.171229 0.506869 1.5353 
1 -2.77035 0.10429 1.71534 
1 2.05513 -3.22302 -2.42942 
1 0.737158 2.34713 1.75628 
1 -3.21742 -3.62525 -2.43265 
1 3.99195 1.32124 0.866266 
1 1.24414 -1.54409 -3.69172 
1 3.41781 3.20286 -3.11226 
1 -0.8574 0.659552 -0.997068 
1 -1.99663 -2.62797 -2.84142 
1 3.93935 -1.63668 0.174971 
1 0.0634484 -2.7355 3.50977 
1 -0.174171 -2.10037 -0.111194 
1 2.96983 -1.59734 -0.262591 
1 0.866834 -3.38715 3.55327 
1 -0.364043 1.60759 -2.56346 
1 0.639698 -1.81227 2.21868 
1 1.76855 -3.16824 3.00405 
1 2.27091 -1.2478 3.59556 
1 -2.04189 1.28593 3.31954 
1 -0.493918 -0.178963 -2.43904 
1 -1.96142 1.79603 -1.70916 
1 -2.40937 -2.22731 1.91931 
1 0.831661 -2.29261 0.325786 
1 1.45397 2.61644 -2.41088 
1 -2.87996 2.65071 1.00843 
1 3.82272 -1.10948 3.07173 
1 -0.172205 -3.45756 2.80049 
1 -1.95666 0.958446 1.7526 
1 3.66691 0.367249 0.449132 
1 -2.29053 -2.11169 3.03731 
2 0.162032 -2.33065 2.7425 
2 0.967998 0.627023 1.16066 
2 -2.54354 1.20266 -1.43547 
2 2.14989 0.603225 3.67553 
2 3.18042 0.175132 2.21207 
2 -2.0995 1.40237 -3.27697 
2 3.17992 -0.436443 -1.782 
2 0.205429 3.68106 -1.41908 
2 -3.47275 -3.44268 1.60818 
2 -2.92168 -2.54295 2.55814 
2 2.95332 2.82897 0.47316 
2 -3.04651 -0.895138 0.303249 
2 -2.49882 -2.5479 -2.12529 
2 3.55526 -2.26277 -0.366912 
2 -1.35867 -2.94665 -2.33204 
2 0.908616 1.20641 -2.07917 
2 4.38565 3.10033 0.247457 
2 3.1004 0.100642 -0.183819 
2 -0.00222038 -3.47574 -3.46844 
2 0.791238 1.65644 3.67299 
2 -1.30542 0.512757 1.36937 
2 -1.62322 1.80224 1.62124 
2 2.94541 2.52786 -2.61476 
2 1.55362 -3.24887 2.17098 
2 -2.23895 3.20279 -3.02615 
2 -1.19581 0.352966 -2.71826 
2 -0.596932 3.12133 -3.14394 
2 -1.92241 3.38542 -1.95801 
2 -0.767981 -1.66327 -0.640846 
2 -0.464584 -1.64909 -1.95968 
2 -1.38829 1.92189 3.38955 
2 -2.37972 -3.55305 3.2977 
2 2.47384 -1.79935 -1.84839 
2 1.01289 -1.07653 -2.31514 
2 -1.19367 -2.64342 -3.31366 
2 0.816675 1.00855 -0.0622715 
2 -0.738752 -2.89035 1.34039 
2 2.28478 0.590991 0.741112 
2 0.539495 -3.0774 0.718939 
2 1.98742 -1.88101 -3.31269 
2 -2.64656 2.43888 3.47097 
2 -0.249235 0.16101 3.65315 
2 -2.43759 0.446911 3.50376 
2 1.23716 -3.46392 -3.10059 
2 -3.25977 0.349054 2.45583 
2 -1.78632 -1.18828 0.625595 
2 0.805328 1.39107 -0.974772 
2 0.461308 -1.49521 0.261028 
2 3.71137 -2.10439 1.10638 
2 1.42518 1.95065 1.31966 
2 -2.85546 -0.783906 1.69608 
2 -2.63467 -2.29643 1.08 
2 -2.48707 -2.40603 -3.55744 
2 0.421774 -1.39423 -3.31011 
2 -3.27387 -1.11105 -2.49447 
2 -0.592829 1.40589 0.876112 
2 -0.685725 1.00317 2.59684 
2 0.231303 -0.149774 -0.529922 
2 4.06673 0.562094 -2.68264 
2 2.36076 -2.10932 -0.700799 
2 0.957754 -1.41213 2.92631 
2 0.314566 -0.267348 1.99385 
2 4.16597 2.18755 -2.43148 
2 2.92919 -3.4559 -3.54914 
2 1.57135 -0.320193 -2.66347 
2 -3.04341 2.43241 -0.733265 
2 -2.27004 1.4408 2.44911 
2 -0.482679 -0.638153 2.32322 
2 2.30671 -0.508903 -1.30317 
2 -2.68616 1.38555 0.314923 
2 2.39055 -2.85294 2.38626 
2 0.938328 0.7122 3.7214 
2 2.09785 -1.3327 -0.260411 
2 2.57774 -1.90387 0.912905 
2 1.25556 -2.70581 -2.53886 
2 3.36837 0.870805 3.32043 
2 -0.330948 1.55014 -3.43817 
2 0.0700781 -1.89921 1.55705 
2 -0.742716 -0.299115 -0.857677 
2 1.41424 -1.57313 1.81582 
2 2.41661 1.35816 -0.221221 
2 -2.74384 -1.58145 -0.406436 
2 3.86034 3.45007 2.55237 
2 0.26672 -2.74434 -1.49859 
2 -2.75819 2.91267 -1.5486 
2 2.02294 1.25396 3.0044 
2 0.676165 -2.25135 -3.53609 
2 1.70226 -0.715743 -3.51932 
2 -1.69638 -1.0808 -1.61604 
2 3.58714 1.62338 0.0973026 
2 2.3893 3.27708 1.84351 
2 -0.0747582 2.20431 -1.7951 
2 2.44164 0.847721 -1.00177 
2 0.791878 3.0909 1.24474 
2 -0.516162 -1.23538 3.2849 
2 -2.06323 -1.33343 2.62388 
2 -2.73472 -0.105111 -1.75565 
2 -1.03366 2.97976 1.24372 
2 3.37933 3.72833 1.45715 
2 -0.639118 3.01624 2.2234 
