ITEM: TIMESTEP
1053
ITEM: NUMBER OF ATOMS
500
ITEM: BOX BOUNDS xy xz yz pp pp pp
-3.7345 4.10795 0.37345
-3.7345 3.7345 0
-3.7345 3.7345 0
ITEM: ATOMS type x y z 
1 -3.10859 -2.62115 -2.84722 
1 -2.58831 -3.47108 -3.27208 
2 -2.5535 -2.40603 -3.55744 
1 -2.05196 -2.62797 -2.84142 
2 -1.39806 -2.94665 -2.33204 
2 -1.24822 -2.64342 -3.31366 
1 -1.50875 -3.50594 -3.04925 
1 -0.586128 -3.03774 -2.8218 
1 0.473914 -2.932 -2.96698 
2 -0.0151586 -3.47574 -3.46844 
1 1.39935 -2.61185 -3.37372 
2 1.20412 -2.70581 -2.53886 
2 1.22363 -3.46392 -3.10059 
1 -2.71487 -1.64795 -3.00141 
2 -3.40505 -1.11105 -2.49447 
1 -3.44055 -0.939579 -3.37661 
1 -1.08875 -2.12416 -2.55697 
1 -1.804 -1.92016 -3.51952 
1 -2.03537 -1.81644 -2.18214 
1 -1.92462 -0.945892 -3.07617 
1 -1.22231 -1.07637 -2.26654 
1 -0.937578 -1.30039 -3.32406 
1 -0.210446 -2.07311 -3.18638 
2 0.602008 -2.25135 -3.53609 
1 0.799151 -1.87765 -2.7229 
2 0.30476 -1.39423 -3.31011 
1 -0.14585 -1.17323 -2.58232 
1 1.85748 -2.17132 -2.47752 
2 1.89475 -1.88101 -3.31269 
2 0.879995 -1.07653 -2.31514 
1 1.61835 -1.1929 -2.78026 
1 1.13462 -1.54409 -3.69172 
1 -2.65352 -0.244143 -3.39147 
1 -3.26436 -0.231809 -2.54468 
1 -2.95095 0.772294 -3.1779 
1 -1.17376 -0.237712 -3.36389 
2 -1.40018 0.352966 -2.71826 
1 -2.13307 0.00201371 -2.42279 
1 -1.95331 0.510109 -3.41324 
1 -0.715306 0.700446 -3.12282 
1 -0.671695 -0.178963 -2.43904 
1 -0.0134421 0.670321 -2.27982 
1 0.228797 0.204216 -3.20248 
1 0.758167 -0.711239 -3.12766 
2 1.40063 -0.320193 -2.66347 
2 1.55132 -0.715743 -3.51932 
1 1.06322 0.47728 -2.43475 
1 1.29901 0.127876 -3.42218 
1 -2.85453 1.6954 -2.59674 
2 -2.35635 1.40237 -3.27697 
1 -1.9862 1.05846 -2.5118 
1 -0.631147 1.60759 -2.56346 
1 -1.47911 1.40203 -3.39144 
2 -0.59518 1.55014 -3.43817 
1 0.409096 1.23665 -3.04543 
1 1.31255 1.55601 -2.59676 
1 1.34653 1.28056 -3.63544 
2 -2.55815 -2.5479 -2.12529 
1 -2.85664 -2.5745 -1.29452 
1 -2.78038 -3.68878 -1.18895 
1 -2.17179 -3.41012 -2.13773 
1 -1.83503 -2.63533 -1.549 
1 -0.797912 -2.81577 -1.69956 
1 -0.0241657 -2.31534 -2.20462 
1 0.0273095 -3.44346 -2.01735 
2 0.217212 -2.74434 -1.49859 
1 0.86285 -3.31759 -1.22645 
1 1.05879 -3.50437 -2.23072 
1 1.90316 -3.57258 -1.30774 
1 0.963604 -2.41364 -1.7623 
1 -3.14118 -1.83077 -2.03679 
1 -2.53537 -0.906252 -2.17326 
1 -3.55174 -1.76013 -0.969147 
1 -2.50868 -1.52892 -1.23745 
1 -1.27552 -1.78576 -1.43727 
2 -1.82907 -1.0808 -1.61604 
1 -1.45709 -0.984643 -0.777615 
2 -0.568854 -1.64909 -1.95968 
1 -0.279677 -2.04491 -1.18569 
1 -0.54202 -0.970768 -1.37942 
1 0.397514 -1.45337 -1.70665 
1 1.4345 -1.86279 -0.704297 
1 1.4678 -1.50768 -1.74068 
2 -2.91619 -0.105111 -1.75565 
1 -3.42455 -0.812035 -1.6377 
1 -2.37093 -0.49636 -1.18528 
1 -2.89402 0.416599 -0.994454 
1 -1.40049 -0.239273 -1.60083 
2 -0.914485 -0.299115 -0.857677 
1 -1.05759 0.784928 -2.03908 
1 -2.02926 0.670004 -1.51011 
1 0.381937 -0.330103 -2.21042 
1 0.510713 -0.516075 -1.17409 
1 0.717209 0.604717 -1.42787 
1 -0.32471 0.0774519 -1.43503 
1 1.36434 -0.474641 -1.81381 
1 1.66416 0.195284 -1.06967 
1 -2.9468 0.698276 -2.10741 
2 -2.7904 1.20266 -1.43547 
1 -2.23795 1.79603 -1.70916 
1 -1.81923 1.46521 -0.809038 
1 -1.0771 0.659552 -0.997068 
1 -1.14959 1.83306 -1.63529 
2 0.661571 1.20641 -2.07917 
1 -0.114609 1.38624 -1.54714 
2 0.549049 1.39107 -0.974772 
1 1.75449 1.02177 -1.75826 
1 1.07414 1.80789 -1.55489 
1 -3.03075 -2.41345 -0.250314 
1 -2.16269 -3.00534 -0.59192 
1 -2.97604 -3.46964 -0.0945125 
1 -3.34689 -2.73865 0.703618 
1 -2.23238 -2.8111 0.485708 
1 -1.10371 -2.55075 -0.621041 
1 -1.13518 -2.60134 0.563483 
1 -1.36384 -3.45501 -0.0301359 
1 0.595693 -2.44051 -0.729597 
1 -0.185278 -3.14109 -0.876901 
1 0.669384 -3.31981 -0.148861 
1 -0.322567 -3.20676 0.184935 
1 1.63676 -2.93394 -0.454701 
1 0.759566 -2.29261 0.325786 
1 1.39002 -3.10283 0.634217 
1 -3.26015 -0.825018 -0.592165 
2 -2.85149 -1.58145 -0.406436 
1 -2.63457 -1.67121 0.445173 
2 -3.18848 -0.895138 0.303249 
1 -2.0258 -1.97388 -0.410785 
2 -0.871543 -1.66327 -0.640846 
1 -1.24979 -1.6196 0.168222 
1 -0.255877 -2.10037 -0.111194 
1 -0.476476 -0.947268 -0.284798 
1 0.446469 -1.40444 -0.61028 
2 0.349344 -1.49521 0.261028 
1 -0.37633 -1.45879 0.743671 
1 1.40458 -0.78684 -0.697165 
2 1.97776 -1.3327 -0.260411 
1 1.25087 -1.37192 0.252273 
1 -2.30148 -0.890708 -0.145833 
1 -3.00374 -0.0370208 0.0561669 
1 -1.89691 0.267399 0.611645 
1 -0.672488 0.118574 -0.135258 
1 -1.35291 -0.580104 0.268681 
1 -1.75903 0.0445878 -0.520029 
2 0.052067 -0.149774 -0.529922 
1 0.465727 -0.625392 0.130285 
1 -0.0136845 0.757338 -0.659846 
1 0.235483 0.391578 0.461512 
1 1.52086 -0.327256 0.318841 
1 0.861207 0.191109 -0.409039 
1 1.26355 0.710561 0.414305 
1 -2.40968 0.844659 -0.148444 
1 -2.88532 1.6581 -0.709617 
2 -2.94216 1.38555 0.314923 
1 -0.716355 1.59142 -0.693747 
1 -1.72206 1.30613 0.900357 
1 -1.33785 0.957028 -0.0156164 
2 0.579522 1.00855 -0.0622715 
1 -0.284192 1.29163 0.226103 
1 1.36669 1.17154 -0.648801 
1 1.53827 1.75163 0.268141 
1 -2.65991 -3.16005 1.45568 
2 -3.48734 -3.44268 1.60818 
1 -1.59518 -2.81593 1.67266 
2 -0.780959 -2.89035 1.34039 
1 -1.21883 -3.59473 0.995317 
1 -0.0981688 -3.46635 1.22878 
1 -0.130947 -2.46595 0.903683 
2 0.50664 -3.0774 0.718939 
1 0.769975 -2.53716 1.43814 
2 -2.70657 -2.29643 1.08 
1 -3.21634 -1.55065 1.31843 
1 -2.22849 -1.24114 1.68807 
2 -3.00299 -0.783906 1.69608 
1 -0.899671 -1.99473 1.50644 
1 -1.85162 -1.97924 1.05086 
2 -1.91363 -1.18828 0.625595 
1 -1.27454 -1.0232 1.22757 
2 -0.0216865 -1.89921 1.55705 
1 -0.163705 -1.01985 1.69245 
1 0.644996 -1.49279 1.13857 
1 1.64346 -2.03963 1.13066 
1 1.51136 -0.897724 1.25307 
1 -2.58091 -0.626535 0.877833 
1 -2.96229 0.10429 1.71534 
1 -0.888383 -0.120438 1.65234 
1 -1.951 -0.183502 1.57832 
2 -1.51778 0.512757 1.36937 
1 -0.837745 0.55016 0.824442 
1 0.587636 -0.323455 1.19967 
1 -0.388515 -0.42591 0.76243 
1 -0.0408396 0.506869 1.5353 
2 0.749921 0.627023 1.16066 
1 1.52019 0.18602 1.3232 
1 -2.88115 0.655631 0.837107 
1 -2.1913 0.958446 1.7526 
1 -2.73274 1.6663 1.09219 
2 -0.849849 1.40589 0.876112 
1 -1.04895 1.10653 1.74173 
1 -0.187153 1.54668 1.43994 
1 0.613991 1.44602 0.768563 
1 0.785719 1.2737 1.79105 
1 1.72309 1.27486 1.20237 
1 1.98586 0.724263 -2.90157 
1 2.07741 -3.01775 1.52166 
1 1.0538 -3.56343 1.54247 
1 1.97787 -2.47123 -1.43392 
1 2.05212 -2.15197 0.159698 
1 2.11345 0.487424 -0.15619 
1 2.02956 -3.22302 -2.42942 
1 2.00431 -3.50906 -3.47283 
1 2.49213 -2.59423 -3.27719 
1 3.08477 -3.35892 -2.6297 
1 2.89498 -2.33834 -2.33335 
1 3.53553 -2.80053 -3.50679 
2 2.91526 -3.4559 -3.54914 
1 2.62337 -1.49451 -2.94779 
1 2.2157 -0.375361 -3.01331 
1 3.25247 -0.646343 -2.6197 
1 3.01928 0.422195 -2.57578 
1 2.74115 0.347309 -3.58104 
1 2.63799 1.48367 -2.65416 
1 3.4385 1.09877 -3.32755 
1 2.80153 -3.13307 -1.6277 
2 2.37708 -1.79935 -1.84839 
1 2.27441 -1.3464 -1.10125 
1 2.34915 -0.941528 -2.06499 
1 3.28681 -1.45198 -1.92546 
1 3.00204 -2.17049 -1.22806 
1 3.19552 -0.863659 -1.00269 
2 2.14543 -0.508903 -1.30317 
1 2.20817 0.0914674 -2.02509 
1 2.7235 0.113609 -1.10287 
2 3.01502 -0.436443 -1.782 
1 3.63786 0.184898 -1.73402 
2 2.21253 0.847721 -1.00177 
1 2.29783 1.7179 -1.03863 
1 3.66378 1.33465 -2.31564 
1 2.82637 1.01589 -1.6723 
1 2.73639 -2.78893 -0.433087 
2 3.48167 -2.26277 -0.366912 
1 2.43352 -3.15074 0.526324 
1 3.11877 -2.36156 0.460429 
1 3.41428 -3.45278 0.096235 
2 2.2795 -2.10932 -0.700799 
1 2.25729 -1.14377 0.53812 
1 2.86297 -1.59734 -0.262591 
1 2.36763 -0.553874 -0.367591 
2 2.0685 0.590991 0.741112 
1 3.3665 -0.660174 0.0898926 
1 2.56501 -0.139615 0.653454 
2 2.90864 0.100642 -0.183819 
1 3.65073 0.105248 -0.642721 
1 3.46182 0.367249 0.449132 
2 2.16198 1.35816 -0.221221 
1 2.95099 0.992474 -0.500347 
2 3.31924 1.62338 0.0973026 
1 2.65137 1.20278 0.542837 
1 3.27157 -3.21456 1.15346 
1 2.89601 -2.325 1.56846 
1 2.30935 -1.42698 1.71272 
2 2.48621 -1.90387 0.912905 
1 3.17967 -1.34936 0.995785 
1 2.83578 -0.503778 1.6524 
1 2.48345 0.536354 1.5436 
1 3.52441 0.442517 1.53571 
1 3.73916 1.32124 0.866266 
1 2.86678 1.53101 1.58234 
1 -3.68024 -2.735 -1.92278 
1 -3.18421 1.6911 -3.63705 
1 3.01182 -0.715311 -3.67267 
1 -1.39308 -3.54741 -1.13076 
2 -1.90006 1.80224 1.62124 
1 -3.22288 -3.62525 -2.43265 
1 -3.50083 -2.53591 1.7913 
2 1.30618 -1.57313 1.81582 
1 -0.160484 -0.691355 -3.64652 
2 3.62987 -2.10439 1.10638 
1 3.95886 1.02059 -0.189017 
2 3.8519 0.562094 -2.68264 
1 3.8087 1.11215 -1.26901 
1 3.64648 -1.79875 -2.90126 
1 3.75128 0.0895164 -3.44961 
1 3.73853 -2.98468 -0.82585 
1 3.83446 -1.63668 0.174971 
1 3.84008 -0.517929 1.06297 
2 3.00619 3.72833 1.45715 
2 -0.165349 3.68106 -1.41908 
1 0.539321 1.86875 -0.221439 
1 -2.98872 3.646 0.821217 
1 -1.68381 2.0758 -2.55894 
1 1.97718 2.20101 -3.14216 
2 -2.58582 3.20279 -3.02615 
1 -3.18102 2.58437 -3.11831 
1 -2.22232 2.28444 -3.46532 
1 -1.75874 3.14462 -2.7165 
1 -1.12618 2.33854 -3.4471 
1 -0.800099 2.65824 -2.41998 
2 -0.939724 3.12133 -3.14394 
1 -0.0828292 2.24154 -3.2718 
1 0.946271 3.45307 -3.03266 
1 -0.114369 3.37681 -3.01132 
1 0.948422 2.34724 -3.47154 
1 1.13642 2.61644 -2.41088 
1 2.00854 3.21054 -2.7707 
1 -3.28277 2.04848 -1.62115 
1 0.315053 1.99025 -2.30627 
2 -0.371699 2.20431 -1.7951 
1 -2.6124 2.67327 -2.25256 
2 -2.27841 3.38542 -1.95801 
1 -2.4782 2.60399 -0.978535 
2 -3.09055 2.91267 -1.5486 
1 -0.712055 3.69595 -2.12417 
1 -1.66697 2.81544 -1.68773 
1 -1.42215 2.42621 -0.705062 
1 -0.671265 2.90473 -1.32648 
1 0.132695 2.99141 -2.04043 
1 0.23757 2.31998 -1.15447 
1 0.661381 3.30724 -1.21217 
1 2.04076 2.12891 -2.01859 
1 1.68609 3.08351 -1.64763 
1 -3.37821 2.1321 0.109308 
1 -2.2475 1.8761 0.117976 
1 -1.18441 1.95924 0.234491 
1 1.45373 2.30199 -0.685805 
1 -3.23883 3.29873 -0.606768 
2 -3.35176 2.43241 -0.733265 
1 -1.90248 3.57145 0.746756 
1 -2.55361 2.90639 0.115817 
1 -1.73939 3.38701 -0.405241 
1 -0.214878 3.46409 -0.545448 
1 -1.05973 2.98227 0.413602 
1 -0.391926 2.48743 -0.305781 
1 0.695997 2.95671 -0.223873 
1 -0.0356553 3.2621 0.517381 
1 0.802689 2.4696 0.69842 
1 1.02988 3.49801 0.671579 
1 1.60691 3.35994 -0.624178 
1 1.74806 2.80723 0.267597 
1 -1.11638 2.1225 1.27401 
1 -0.220875 2.24678 0.692396 
2 1.14093 1.95065 1.31966 
1 -2.08167 2.50204 1.00503 
1 -2.54144 3.2649 1.7038 
1 -3.19922 2.65071 1.00843 
2 -1.36937 2.97976 1.24372 
1 -0.477802 2.95137 1.4783 
1 -1.4963 3.62744 1.81454 
2 0.450607 3.0909 1.24474 
1 0.433077 2.34713 1.75628 
1 2.18342 2.21823 1.04313 
1 2.25343 3.45687 1.00344 
1 1.38509 2.8266 1.50081 
1 3.22076 3.70859 -0.784445 
1 2.46781 3.53339 -0.0615172 
1 3.31266 2.14856 -3.10999 
2 2.63229 2.52786 -2.61476 
1 3.80695 3.05397 -2.30559 
1 3.07094 3.20286 -3.11226 
1 2.51378 2.78841 -0.957281 
1 3.54107 2.84549 -1.28383 
1 2.77098 3.22155 -2.01258 
1 3.10263 2.15717 -1.92226 
1 2.54154 2.11473 -0.0587431 
1 3.38738 1.93344 -0.749948 
1 3.32248 2.8307 -0.187485 
2 2.62514 2.82897 0.47316 
1 3.75035 2.10274 1.7396 
1 3.23517 2.24765 0.763182 
1 3.32531 3.31358 0.748456 
1 2.85595 2.82538 1.62046 
1 3.80398 3.33138 1.72975 
2 2.03872 3.27708 1.84351 
1 4.05355 3.7324 -1.55929 
1 4.07799 3.59829 -3.29177 
2 3.86987 2.18755 -2.43148 
2 4.04391 3.10033 0.247457 
1 2.41393 1.36087 3.697 
1 -2.48473 -2.22731 1.91931 
1 -0.83678 -3.57414 1.97728 
1 -0.230416 -2.66348 1.99808 
2 1.52934 -3.24887 2.17098 
2 -0.637497 -0.638153 2.32322 
1 0.89524 -0.816361 2.1151 
2 0.141208 -0.267348 1.99385 
1 0.789886 0.263981 2.17676 
1 -3.22897 1.1467 1.95239 
1 1.69192 0.882992 2.18343 
1 -3.20764 -3.39491 2.41766 
2 -2.98126 -2.54295 2.55814 
1 -3.01688 -2.93779 3.36763 
2 -2.3888 -3.55305 3.2977 
1 -2.21109 -3.07069 2.54669 
1 -1.8584 -2.93128 3.56373 
1 -1.10756 -2.80929 2.68294 
1 -0.83432 -3.33126 3.64083 
1 -0.186052 -3.45756 2.80049 
2 0.0918392 -2.33065 2.7425 
1 0.0134981 -2.7355 3.50977 
1 0.688252 -3.0146 2.40732 
1 0.849467 -3.38715 3.55327 
1 0.940158 -2.32986 3.1144 
1 1.74024 -3.16824 3.00405 
1 1.57765 -2.35553 2.21908 
1 -3.29116 -1.93408 3.61895 
1 -2.37167 -2.11169 3.03731 
1 -3.03411 -1.4571 2.40641 
1 -2.5942 -1.12339 3.41574 
2 -2.18329 -1.33343 2.62388 
1 -0.884 -2.11821 3.43354 
1 -1.56707 -1.90207 2.33722 
1 -1.53606 -1.22861 3.23629 
2 -0.641118 -1.23538 3.2849 
1 0.543586 -1.81227 2.21868 
1 -0.535804 -1.64655 2.48597 
1 0.125584 -1.68275 3.36047 
1 0.0855693 -0.819605 2.76727 
2 0.841636 -1.41213 2.92631 
1 1.68737 -1.37392 2.61808 
1 -2.51147 -0.54093 2.4183 
1 -3.16001 -0.205838 3.15086 
2 -2.64666 0.446911 3.50376 
1 -2.5884 0.536854 2.62762 
2 -3.46394 0.349054 2.45583 
1 -1.97071 -0.182789 3.2472 
1 -1.46224 -0.826162 2.28485 
1 -0.911089 -0.401667 3.10958 
1 -1.51771 0.365651 2.39583 
1 -1.15525 0.637285 3.35634 
2 -0.444011 0.16101 3.65315 
1 -0.412825 0.249157 2.50564 
2 0.715993 0.7122 3.7214 
1 0.346517 0.094376 3.21599 
1 1.12075 -0.632871 3.18831 
1 1.84828 -0.254243 2.28013 
1 1.31322 0.494742 3.06797 
2 -2.5288 1.4408 2.44911 
1 -2.29292 1.28593 3.31954 
1 -3.42981 0.841537 3.23981 
1 -1.6563 1.57619 2.48342 
2 -0.922608 1.00317 2.59684 
1 -0.863586 1.64478 3.19169 
1 -0.0884213 1.01254 3.51841 
1 -0.0682539 1.22737 2.46459 
1 0.902219 1.48757 2.86257 
2 0.521691 1.65644 3.67299 
2 1.77352 1.25396 3.0044 
2 1.933 0.603225 3.67553 
1 3.4202 -1.5111 2.04283 
2 2.98494 0.175132 2.21207 
2 2.34647 -2.85294 2.38626 
1 2.75823 -2.91637 3.19176 
1 3.17867 -3.18812 2.215 
1 1.95255 -2.20105 3.31524 
1 2.14657 -1.2478 3.59556 
1 2.69425 -0.890797 2.68155 
1 2.63702 -2.02385 2.55894 
1 3.05824 -1.86049 3.57631 
1 2.07565 -0.242411 3.36249 
1 2.4144 0.608016 2.88103 
1 3.2894 0.00715791 3.02057 
1 2.47926 1.64406 2.61762 
1 3.31866 0.965434 2.44981 
2 3.1381 0.870805 3.32043 
1 3.32624 1.73274 3.28304 
1 3.58036 -3.60836 3.17998 
1 3.64553 -2.40768 2.81247 
1 3.69147 -1.10948 3.07173 
1 3.77531 -0.477641 2.18837 
1 -1.57175 3.27915 3.71331 
1 2.66057 3.70043 2.25795 
1 1.57153 1.94696 2.09604 
1 -1.06459 3.6685 2.84971 
1 -2.6611 2.20629 1.95592 
1 -0.658208 2.12885 2.22676 
1 -1.69282 2.5824 2.00462 
2 -0.976655 3.01624 2.2234 
1 0.637219 3.4239 2.03024 
1 -3.24439 1.88766 2.77944 
2 -1.67111 1.92189 3.38955 
1 0.0441304 2.14682 3.12102 
1 1.7053 2.10007 3.24553 
1 -2.29249 2.33351 2.92618 
1 -3.1475 2.9822 2.62093 
1 -2.06151 3.33423 2.66448 
2 -2.95523 2.43888 3.47097 
1 -2.62599 3.2391 3.54444 
1 -1.26503 2.6031 2.96461 
1 -0.506328 3.04303 3.54879 
1 0.528568 3.24952 3.48313 
1 -0.160633 3.01342 2.54231 
1 0.927943 2.61458 2.69448 
1 1.54468 3.5121 2.59729 
1 1.69751 3.1139 3.64726 
1 2.22349 2.69757 2.50706 
1 2.63969 2.52915 3.55319 
2 3.50111 3.45007 2.55237 
1 3.28827 2.59593 2.58052 
1 3.70801 2.79213 3.51374 
1 2.9411 3.49526 3.24307 
