ITEM: TIMESTEP
1280
ITEM: NUMBER OF ATOMS
500
ITEM: BOX BOUNDS xy xz yz pp pp pp
-3.7345 4.10795 0.37345
-3.7345 3.7345 0
-3.7345 3.7345 0
ITEM: ATOMS type x y z 
1 -0.275412 2.57878 -0.336028 
1 0.697047 0.534995 -1.43976 
1 2.0876 0.478732 -0.183355 
1 -0.0658458 -2.48865 0.928787 
1 2.96203 1.01094 -0.450408 
1 3.28294 -0.605182 -2.64243 
1 0.425171 -0.508922 -1.07332 
1 -1.55966 -3.33684 0.0768383 
1 2.26027 -1.35613 -1.10199 
1 3.05383 -0.704506 -3.69814 
1 -2.90805 1.80992 1.02872 
1 1.26528 -1.3981 0.264447 
1 0.0239159 0.741249 -0.645993 
1 -1.06478 3.71493 2.89634 
1 2.82543 2.80009 1.6679 
1 -1.03033 2.35169 -3.46821 
1 3.70596 1.33402 -2.2477 
1 2.49427 -2.57559 -3.24706 
1 2.79031 3.25011 -2.00563 
1 2.70164 -3.13269 -1.6467 
1 -2.9116 0.258973 -1.00951 
1 0.976325 -3.62 1.58681 
1 1.06424 -0.645263 3.26653 
1 -3.14685 2.58864 -3.11006 
1 2.66203 -2.03369 2.61061 
1 -0.47768 -0.896907 -0.225559 
1 2.76555 1.63947 1.65524 
1 1.61689 -1.20903 -2.73908 
1 -0.214838 2.19067 0.657866 
1 -1.10274 1.93263 0.102648 
1 -1.41644 1.4052 -3.43348 
1 -1.186 -3.64777 0.993582 
1 -2.47391 2.72401 -1.01568 
1 -3.53133 -1.71147 -1.01928 
1 -1.14213 0.640396 3.23311 
1 0.814951 -2.59046 1.49926 
1 2.35914 -0.547884 -0.388994 
1 0.954195 3.34221 -3.11672 
1 -1.38671 3.67115 -1.30828 
1 1.52634 -0.353122 0.312624 
1 2.1983 3.40382 1.06464 
1 -0.0345656 -2.33471 -2.17059 
1 0.640147 3.10192 3.35971 
1 -2.62888 -0.552079 2.40426 
1 1.28232 1.48965 -2.61639 
1 -3.20041 -3.37165 2.47394 
1 0.343324 1.32726 -3.14346 
1 -0.615403 3.54268 -0.540204 
1 2.38054 -0.905902 -2.0361 
1 -1.96575 0.635577 -1.46967 
1 3.78546 -0.501366 2.1909 
1 -1.52622 -3.50923 -3.06725 
1 0.265061 0.350565 0.42249 
1 0.171483 -0.932404 2.70797 
1 1.97422 -2.22703 3.36337 
1 -0.464228 2.92897 1.46256 
1 2.89234 -2.33546 -2.29749 
1 1.04369 3.44952 0.681289 
1 2.06926 2.29345 -1.95751 
1 0.97652 -2.34269 3.12996 
1 3.20959 2.27423 0.786624 
1 -0.203255 -2.14214 -3.19382 
1 3.82939 -0.494287 1.04704 
1 2.62764 1.49443 -2.5642 
1 -0.445809 -3.23514 0.245084 
1 1.39421 -3.21616 0.570579 
1 3.53031 -2.79628 -3.49513 
1 3.0843 -1.84852 3.61133 
1 2.25146 -0.408217 -3.03039 
1 2.31355 1.71949 -1.03759 
1 -1.38875 -0.280297 -1.55716 
1 2.70772 -2.39326 1.61582 
1 -3.39413 -0.751918 -1.62577 
1 1.03059 -0.78106 2.14255 
1 3.18801 -3.15798 2.24862 
1 0.687152 -1.54658 1.16155 
1 -2.45118 -1.62698 -1.25529 
1 -0.293944 1.43442 1.37688 
1 -1.71122 1.62902 2.46533 
1 0.742675 2.94729 -0.248743 
1 -0.0167845 3.2159 0.490612 
1 -3.03674 -1.56672 2.43333 
1 2.43345 0.610917 2.90837 
1 -0.871789 -2.10535 3.42119 
1 0.800606 -1.93746 -2.70338 
1 3.66976 -2.95844 -0.837529 
1 2.98632 -3.3738 -2.65213 
1 -3.28454 2.11872 -1.58666 
1 -0.859805 -3.6095 1.99774 
1 3.79408 3.0159 -2.30862 
1 0.70247 -3.40259 -1.20582 
1 -0.428322 -1.77788 2.46384 
1 -3.44239 -2.50108 1.85048 
1 1.59788 0.158775 1.31455 
1 1.40218 -1.87922 -0.69483 
1 -1.94725 1.45457 0.743785 
1 -1.09786 2.98687 0.345517 
1 3.74324 2.14584 1.76135 
1 -1.48078 -1.7258 2.2931 
1 -2.86167 0.750529 -3.13465 
1 -2.66006 -1.56614 -3.02766 
1 1.94563 -2.46449 -1.42001 
1 0.582916 1.38595 0.748152 
1 -3.65381 -2.80735 -2.11596 
1 -0.784457 -0.195113 1.78881 
1 -3.35879 -3.69631 0.845542 
1 -2.0588 3.35042 2.67851 
1 0.151738 -1.72419 3.37434 
1 2.89088 3.44948 3.24074 
1 2.557 0.592027 1.48657 
1 2.00336 3.18441 -2.74966 
1 -3.41219 0.849704 3.2384 
1 3.30937 -1.41814 -1.93749 
1 -1.71356 0.0417491 -0.548299 
1 -1.86122 3.43294 -0.37189 
1 3.4161 -1.5643 2.02713 
1 2.43716 1.34958 -3.73264 
1 -1.59451 -0.64844 2.30989 
1 3.59902 0.15879 -0.61969 
1 -3.35611 3.62936 -3.21845 
1 -1.20681 1.55556 -1.74525 
1 3.3058 0.0339253 2.99684 
1 2.74992 -2.94254 3.21668 
1 0.813203 2.42048 0.658772 
1 1.67135 1.93733 2.05973 
1 -0.838444 -3.22408 3.68033 
1 3.3393 -3.09111 1.18789 
1 2.10955 -0.295132 3.35699 
1 -2.15342 2.58582 0.99574 
1 -2.81356 1.69351 -2.60604 
1 -2.58322 -3.50097 -3.22655 
1 1.65529 2.06509 3.22404 
1 2.4934 3.59046 0.0291573 
1 -1.69785 2.6352 1.95764 
1 0.326199 0.0757356 3.01878 
1 -1.5811 3.22962 -3.71942 
1 1.72698 -1.36523 2.69974 
1 1.98467 2.16217 -3.11072 
1 -2.09218 0.0267526 -2.39049 
1 -0.0764966 3.49731 -2.98546 
1 -0.0616276 1.01335 3.39422 
1 1.47495 2.28107 -0.677245 
1 -0.334105 -1.46819 0.77352 
1 1.86576 1.06518 -1.79826 
1 0.000855566 1.56436 2.44814 
1 0.545743 3.32584 2.05774 
1 -0.0950857 -3.52896 1.24107 
1 3.32839 2.14733 -3.06645 
1 -0.772639 2.56318 -2.3865 
1 3.20017 -1.3688 0.983654 
1 -3.09431 0.0151352 0.115748 
1 1.83467 -2.21261 -2.45686 
1 -3.10336 1.67409 -3.63214 
1 2.01493 -2.17505 0.16725 
1 2.75063 -0.896824 2.67756 
1 -2.54708 -1.09183 3.39249 
1 2.63663 -1.49677 -2.88762 
1 2.86459 -0.487428 1.6229 
1 2.02114 -3.51422 -3.4632 
1 -1.69796 2.05408 -2.60226 
1 -2.58724 3.30001 1.72218 
1 -1.16768 -2.52565 -0.582446 
1 2.11199 0.0883717 -2.08558 
1 -0.154041 1.20984 -1.595 
1 1.38167 -2.66036 -3.33993 
1 -0.822304 -1.28514 -3.32187 
1 1.13178 1.77598 -1.57847 
1 -1.8022 -0.147628 1.4036 
1 2.6192 1.26946 0.556174 
1 -0.618674 1.72042 -0.822453 
1 -1.85259 0.466828 -3.40902 
1 -1.10948 -1.05402 -2.22065 
1 -1.05605 0.545471 -2.18803 
1 -3.16247 2.99996 2.62282 
1 3.29355 0.997577 2.45882 
1 -1.7313 1.54982 -0.797678 
1 3.67914 0.228372 -1.73309 
1 0.944242 -3.61771 -2.22539 
1 0.962769 2.25866 -3.46536 
1 -1.99837 -1.77397 -2.21804 
1 -1.55564 0.463913 2.27671 
1 2.28209 -1.16637 0.5281 
1 -3.39225 2.18126 0.129295 
1 -1.28621 -1.77696 -1.39968 
1 3.3651 -3.38521 0.124458 
1 1.28048 2.9919 -1.49237 
1 1.45716 -1.5531 -1.73917 
1 -0.309819 -2.06604 -1.13023 
1 -2.66507 -3.10537 1.44798 
1 0.652338 -3.09706 2.49339 
1 -2.60634 0.550655 2.60284 
1 0.411279 -1.47516 -1.62514 
1 2.3305 -1.41738 1.76332 
1 -1.20802 -1.06605 1.33273 
1 0.795019 1.27312 1.76217 
1 3.13684 -2.31706 0.440628 
1 3.66121 -1.81738 -2.90714 
1 0.907042 0.169889 -0.408179 
1 -0.752765 3.63459 -2.15985 
1 -2.13008 2.16433 -0.0188879 
1 2.67483 -2.79344 -0.412748 
1 -2.08854 0.233054 0.451687 
1 0.281373 1.91174 -2.24448 
1 3.33878 -0.631751 0.0992629 
1 2.92574 1.04552 -1.58607 
1 -2.29895 2.35443 2.94028 
1 1.63784 3.43566 -0.573587 
1 -1.53875 3.6656 1.80235 
1 -0.525618 -0.99383 -1.29991 
1 -1.18277 2.17443 1.11584 
1 3.70988 2.8323 3.5489 
1 0.0274749 2.17852 3.34578 
1 0.414149 -1.44173 -0.553064 
1 -2.88478 0.755564 -2.01799 
1 3.67623 -2.4199 2.86474 
1 3.41589 1.94244 -0.730567 
1 -2.57039 2.64831 -2.20549 
1 0.215893 2.96003 -2.10582 
1 -1.94497 1.05463 -2.51277 
1 -2.92947 -2.60145 -1.36869 
1 2.00856 0.72425 -2.92415 
1 -0.705891 -0.382101 2.84388 
1 1.89471 -3.06398 1.52929 
1 2.71948 0.0710831 -1.19373 
1 -3.29984 3.38947 -0.608336 
1 1.75232 2.80053 0.244469 
1 -0.395175 0.565795 2.43316 
1 3.2113 -0.870828 -0.981455 
1 -0.075741 -1.28407 -2.53774 
1 2.0065 -0.208371 2.25511 
1 -1.45254 -0.995236 -0.714519 
1 1.38703 0.365251 3.00589 
1 0.413234 -3.03567 -2.98994 
1 1.07839 0.427523 -2.43214 
1 -2.19159 -3.05771 2.57661 
1 -0.373243 -0.419583 0.809942 
1 -0.719392 0.630582 -3.24377 
1 0.755585 -0.699346 -3.0673 
1 -2.87505 -3.67346 -1.23651 
1 -2.21949 -3.38291 -2.19129 
1 -2.64626 3.26678 3.55455 
1 0.346861 -0.383119 -2.13796 
1 1.66739 -2.04214 1.16025 
1 -1.82758 -1.93171 1.07636 
1 -1.68408 3.12658 -2.6429 
1 -0.864298 1.66618 3.14697 
1 1.72845 1.25682 1.19183 
1 -2.67834 3.01876 0.152503 
1 3.01742 0.448567 -2.53083 
1 0.826353 2.37697 2.58751 
1 3.1389 2.17819 -1.9385 
1 3.5696 0.383672 1.61961 
1 -1.05315 -2.07236 -2.52015 
1 0.272097 0.234005 -3.35868 
1 3.26087 3.38161 0.804644 
1 -3.3396 -2.55528 0.71171 
1 -1.12191 -2.53437 0.601317 
1 3.77986 0.104515 -3.41157 
1 3.28563 2.57365 2.62146 
1 -1.8838 -2.61383 -1.59216 
1 3.5212 2.86206 -1.25606 
1 2.44143 -3.07713 0.645235 
1 3.48786 1.10406 -3.27171 
1 0.487457 -0.688639 0.190452 
1 -1.11266 -0.2974 -3.65793 
1 -2.64668 2.18024 1.95766 
1 -1.45458 -1.15504 3.21623 
1 -2.84964 1.77397 -0.683891 
1 -3.04057 -2.57871 -2.94758 
1 -1.83302 -2.87297 3.5817 
1 0.924423 -2.48679 -1.72186 
1 -0.86076 -2.81361 -1.65876 
1 -2.63833 -1.62864 0.466637 
1 2.77571 0.339876 -3.56691 
1 1.66275 0.216638 -1.12309 
1 0.554008 -2.48519 -0.700545 
1 -3.48067 1.11191 -0.0833875 
1 1.56626 -2.95847 -0.495702 
1 3.92357 1.1143 -1.17887 
1 1.32415 0.105733 -3.43577 
1 1.75078 -3.59392 -1.41491 
1 2.53343 2.13327 -0.0674923 
1 3.37345 1.73684 3.35679 
1 -1.98693 -0.132993 3.17866 
1 -0.343946 1.19819 0.234307 
1 0.00963731 0.607067 -2.41118 
1 -0.190228 -2.73493 1.99444 
1 -3.27727 1.18171 1.97618 
1 -1.23961 2.63489 2.93621 
1 3.12137 3.71251 -0.809724 
1 -3.26335 -0.76318 -0.575339 
1 -1.39112 0.928182 0.0194244 
1 1.36855 1.20366 -3.6532 
1 -3.26093 1.91534 2.78414 
1 0.827859 0.265943 2.08838 
1 -2.0236 -1.92977 -0.351012 
1 -0.307608 -3.13635 -0.799087 
1 -2.3026 -0.803235 -0.0983237 
1 1.75516 0.882822 2.16512 
1 1.3797 -0.804119 -0.711833 
1 -0.08148 -3.45361 -1.96987 
1 -2.2567 -1.20363 1.67504 
1 -2.19329 2.33038 -3.47908 
1 -1.24466 -1.54383 0.229795 
1 1.62151 -2.35515 2.2611 
1 2.1255 2.24444 1.0425 
1 -0.226545 2.85942 2.56773 
1 -2.51965 -0.901265 -2.17906 
1 -0.845994 -2.05019 1.51727 
1 0.949762 1.29097 2.81406 
1 -2.59238 -0.269641 -3.37649 
1 1.77144 3.08797 3.64278 
1 3.29987 2.86868 -0.159736 
1 -2.9546 -2.92517 3.41799 
1 -3.25131 -1.56405 1.31306 
1 1.27876 0.681997 0.432031 
1 -0.455862 3.15296 3.57598 
1 -0.0815296 -1.01793 1.70317 
1 -0.602591 2.86981 -1.38455 
1 2.45215 2.81778 -0.977797 
1 1.45837 3.42046 2.62455 
1 -3.13026 -1.81544 -2.07343 
1 -1.3597 -0.510742 0.391342 
1 3.56485 -3.69505 -1.58818 
1 -2.30015 -2.69561 0.47006 
1 -3.03039 -3.37348 -0.0991021 
1 -2.60576 -0.608087 0.891124 
1 -0.0666069 -0.691547 3.71501 
1 1.31204 -0.532488 -1.78781 
1 -2.20749 -2.9717 -0.659788 
1 0.653341 -0.358399 1.19563 
1 1.31803 2.79003 1.53089 
1 2.65076 3.70938 2.24425 
1 -2.34669 -0.588788 -1.16798 
1 2.98103 -2.15309 -1.21712 
1 -1.73477 -1.82127 -3.48541 
1 -3.23237 -1.91618 3.61107 
1 -0.964937 0.470238 0.904326 
1 -1.78317 -0.839018 -3.01191 
1 0.304842 3.3394 -1.10598 
1 1.52514 1.72256 0.256682 
1 2.64639 2.45986 3.57717 
1 -0.351912 0.0852874 -1.47821 
1 -0.0215058 2.43276 -3.11239 
1 0.506502 1.82155 -0.256017 
1 -2.90965 0.801344 0.80344 
1 -1.60863 2.59658 -1.68521 
1 -1.57786 -2.82808 1.60512 
1 1.56674 -0.915569 1.24398 
1 -3.42587 -0.931371 -3.37401 
1 -3.16069 -0.192766 3.19805 
1 -0.65694 -2.99451 -2.74731 
1 -0.690927 0.159124 -0.0993417 
1 2.23672 2.73258 2.58848 
1 -1.11395 -2.73814 2.60548 
1 -3.03959 -2.34504 -0.315577 
1 3.74852 3.39747 1.76031 
1 1.35318 1.16104 -0.673017 
1 -0.806158 2.10378 2.09564 
1 -3.20461 -0.19376 -2.52728 
1 3.56718 -3.60919 3.22719 
1 -2.42831 0.882652 -0.305559 
1 -1.2748 1.22268 1.59437 
1 0.270579 2.24719 -1.21502 
1 2.52738 -0.144767 0.654939 
1 0.545039 -3.3613 -0.116443 
1 2.51239 1.6856 2.70412 
1 -1.90214 3.62455 0.745946 
1 -1.33621 2.58424 -0.676251 
1 -0.00588058 0.434881 1.45164 
1 -2.86864 0.129566 1.63858 
1 1.91913 -3.25538 -2.44272 
1 0.360432 2.25595 1.63139 
1 -2.78571 3.6667 -2.32883 
1 3.61125 1.31863 1.00231 
1 1.14198 -1.55967 -3.64403 
1 3.04977 3.17869 -3.12325 
1 -1.01467 0.731558 -0.996281 
1 -1.99188 -2.5976 -2.85906 
1 -3.62658 -1.58102 0.102415 
1 0.0604509 -2.77276 3.46175 
1 -0.281532 -2.13515 -0.0630155 
1 2.84053 -1.59098 -0.266211 
1 0.861345 -3.44477 3.55896 
1 -0.641491 1.53058 -2.65671 
1 0.648846 -1.80674 2.21918 
1 1.74081 -3.20466 3.02017 
1 2.17018 -1.26807 3.67112 
1 -2.24336 1.26185 3.33351 
1 -0.514597 -0.31802 -2.76395 
1 -2.29212 1.71463 -1.67958 
1 -2.37906 -2.21754 1.96928 
1 0.825254 -2.36159 0.342499 
1 1.14811 2.53928 -2.44652 
1 -3.29315 2.78269 1.01679 
1 3.72934 -1.12739 3.06831 
1 -0.263188 -3.58348 2.87064 
1 -2.29918 1.08991 1.70609 
1 3.41579 0.407806 0.494976 
1 -2.25967 -2.06215 3.04184 
2 0.184687 -2.35739 2.71159 
2 0.818917 0.580834 1.18037 
2 -2.65609 1.08387 -1.17976 
2 1.96926 0.559787 3.6618 
2 2.88626 0.189326 2.22668 
2 -2.28329 1.44167 -3.26469 
2 3.15332 -0.501011 -1.77685 
2 -0.784318 -3.66674 -1.37027 
2 -3.48768 -3.41001 1.66889 
2 -2.9316 -2.4977 2.61551 
2 2.60772 2.83733 0.496179 
2 -3.20244 -0.853086 0.309959 
2 -2.56247 -2.51294 -2.18193 
2 3.45736 -2.21814 -0.409999 
2 -1.42861 -2.98168 -2.30985 
2 0.657775 1.14404 -2.07015 
2 3.96407 3.24181 0.27958 
2 2.87602 0.12372 -0.145716 
2 -0.0010021 -3.60901 -3.67267 
2 0.622859 1.5959 3.54673 
2 -1.78854 0.685126 1.12966 
2 -1.90734 1.87115 1.5495 
2 2.65019 2.54054 -2.60939 
2 1.46255 -3.30917 2.22766 
2 -2.48119 3.14323 -3.0253 
2 -1.33583 -0.00102151 -2.85111 
2 -0.880807 3.12484 -3.07525 
2 -2.09465 3.30897 -1.84502 
2 -0.860911 -1.64444 -0.587908 
2 -0.540804 -1.66864 -1.88658 
2 -1.65273 1.96054 3.38317 
2 -2.34515 -3.5583 3.34774 
2 2.36505 -1.78116 -1.86584 
2 0.845687 -1.1279 -2.3014 
2 -1.20086 -2.54357 -3.3012 
2 0.649162 0.982303 -0.0819058 
2 -0.745505 -2.93491 1.32029 
2 2.09121 0.597896 0.713862 
2 0.545079 -3.12233 0.78511 
2 1.87976 -1.90429 -3.26919 
2 -2.97577 2.45631 3.47145 
2 -0.408173 0.168624 3.50795 
2 -2.61349 0.45225 3.51818 
2 1.22596 -3.5195 -3.07769 
2 -3.48588 0.363622 2.44921 
2 -1.91201 -1.1268 0.720637 
2 0.538712 1.36676 -1.04297 
2 0.388736 -1.59501 0.309282 
2 3.49751 -2.16044 1.24389 
2 1.17353 1.9336 1.28978 
2 -3.03805 -0.773659 1.65318 
2 -2.66658 -2.22481 1.15097 
2 -2.47299 -2.31065 -3.57899 
2 0.314281 -1.41104 -3.30357 
2 -3.41734 -1.07837 -2.47896 
2 -1.03517 1.35467 0.765413 
2 -0.909338 1.25492 2.3845 
2 0.0746822 -0.132287 -0.360861 
2 3.8897 0.578379 -2.63296 
2 2.24828 -2.11356 -0.686072 
2 0.886644 -1.45012 2.97302 
2 0.041243 -0.209642 2.16838 
2 3.93349 2.16656 -2.4249 
2 2.94039 -3.51605 -3.56464 
2 1.46867 -0.330549 -2.63306 
2 -3.33757 2.50937 -0.713833 
2 -2.57269 1.44703 2.49835 
2 -0.817188 -1.03032 2.19635 
2 2.07012 -0.530666 -1.28926 
2 -2.73576 1.53459 0.208716 
2 2.34678 -2.86577 2.36818 
2 0.751618 0.665774 3.52196 
2 1.9631 -1.33259 -0.267441 
2 2.50025 -1.9264 0.904646 
2 1.13205 -2.77386 -2.511 
2 3.1666 0.881706 3.34323 
2 -0.436452 1.64861 -3.52412 
2 0.0158718 -1.92383 1.62015 
2 -0.875124 -0.299275 -0.827561 
2 1.42031 -1.55316 1.86174 
2 2.15267 1.353 -0.22869 
2 -2.81759 -1.49829 -0.417135 
2 3.4795 3.45764 2.58749 
2 0.128815 -2.76878 -1.44459 
2 -3.09503 3.01723 -1.58144 
2 1.80566 1.21735 3.01478 
2 0.611327 -2.28657 -3.51862 
2 1.55243 -0.745606 -3.48837 
2 -1.79825 -1.09449 -1.63802 
2 3.30771 1.66369 0.128872 
2 1.98173 3.2443 1.90228 
2 -0.452021 2.04515 -1.72047 
2 2.26989 0.832157 -1.00744 
2 0.457831 3.03903 1.22291 
2 -0.567566 -1.23014 3.19277 
2 -2.18065 -1.28931 2.59292 
2 -2.74878 -0.106176 -1.79033 
2 -1.34729 3.0463 1.20561 
2 2.64131 -3.55466 1.4708 
2 -0.982042 3.10172 2.19702 
