ITEM: TIMESTEP
1281
ITEM: NUMBER OF ATOMS
500
ITEM: BOX BOUNDS xy xz yz pp pp pp
-3.7345 3.7345 0
-3.7345 3.7345 0
-3.7345 3.7345 0
ITEM: ATOMS type x y z 
1 -3.09836 -2.57871 -2.94758 
1 -2.5949 -3.50097 -3.22655 
2 -2.54418 -2.31065 -3.57899 
1 -2.04873 -2.5976 -2.85906 
2 -1.46625 -2.98168 -2.30985 
2 -1.26041 -2.54357 -3.3012 
1 -1.53748 -3.50923 -3.06725 
1 -0.693939 -2.99451 -2.74731 
1 0.378293 -3.03567 -2.98994 
2 -0.00727646 -3.60901 -3.67267 
1 1.32797 -2.66036 -3.33993 
2 1.08402 -2.77386 -2.511 
2 1.21521 -3.5195 -3.07769 
1 -2.76848 -1.56614 -3.02766 
2 -3.55014 -1.07837 -2.47896 
1 -3.56602 -0.931371 -3.37401 
1 -1.13625 -2.07236 -2.52015 
1 -1.83043 -1.82127 -3.48541 
1 -2.0964 -1.77397 -2.21804 
1 -1.92795 -0.839018 -3.01191 
1 -1.24351 -1.05402 -2.22065 
1 -0.944772 -1.28514 -3.32187 
1 -0.282873 -2.14214 -3.19382 
2 0.538931 -2.28657 -3.51862 
1 0.710754 -1.93746 -2.70338 
2 0.198109 -1.41104 -3.30357 
1 -0.198263 -1.28407 -2.53774 
1 1.75858 -2.21261 -2.45686 
2 1.78825 -1.90429 -3.26919 
2 0.715358 -1.1279 -2.3014 
1 1.49061 -1.20903 -2.73908 
1 1.03324 -1.55967 -3.64403 
1 -2.76562 -0.269641 -3.37649 
1 -3.38165 -0.19376 -2.52728 
1 -3.08592 0.750529 -3.13465 
1 -1.28452 -0.2974 -3.65793 
2 -1.52251 -0.00102151 -2.85111 
1 -2.28024 0.0267526 -2.39049 
1 -2.06265 0.466828 -3.40902 
1 -0.937647 0.630582 -3.24377 
1 -0.685421 -0.31802 -2.76395 
1 -0.207441 0.607067 -2.41118 
1 0.0736714 0.234005 -3.35868 
1 0.603828 -0.699346 -3.0673 
2 1.29848 -0.330549 -2.63306 
2 1.40299 -0.745606 -3.48837 
1 0.870286 0.427523 -2.43214 
1 1.13214 0.105733 -3.43577 
1 -3.08497 1.69351 -2.60604 
2 -2.5421 1.44167 -3.26469 
1 -2.18443 1.05463 -2.51277 
1 -0.904745 1.53058 -2.65671 
1 -1.67343 1.4052 -3.43348 
2 -0.705607 1.64861 -3.52412 
1 0.0902358 1.32726 -3.14346 
1 1.02111 1.48965 -2.61639 
1 1.12164 1.20366 -3.6532 
2 -2.62354 -2.51294 -2.18193 
1 -2.98612 -2.60145 -1.36869 
1 -2.8781 -3.67346 -1.23651 
1 -2.23707 -3.38291 -2.19129 
1 -1.93983 -2.61383 -1.59216 
1 -0.906805 -2.81361 -1.65876 
1 -0.104555 -2.33471 -2.17059 
1 -0.0955244 -3.45361 -1.96987 
2 0.0805288 -2.76878 -1.44459 
1 0.685874 -3.40259 -1.20582 
1 0.938402 -3.61771 -2.22539 
1 1.74375 -3.59392 -1.41491 
1 0.862038 -2.48679 -1.72186 
1 -3.22621 -1.81544 -2.07343 
1 -2.66131 -0.901265 -2.17906 
1 -3.63248 -1.71147 -1.01928 
1 -2.55655 -1.62698 -1.25529 
1 -1.38409 -1.77696 -1.39968 
2 -1.93025 -1.09449 -1.63802 
1 -1.58951 -0.995236 -0.714519 
2 -0.644097 -1.66864 -1.88658 
1 -0.393242 -2.06604 -1.13023 
1 -0.662651 -0.99383 -1.29991 
1 0.298312 -1.47516 -1.62514 
1 1.30942 -1.87922 -0.69483 
1 1.34809 -1.5531 -1.73917 
2 -2.93019 -0.106176 -1.79033 
1 -3.54326 -0.751918 -1.62577 
1 -2.50398 -0.588788 -1.16798 
1 -3.11127 0.258973 -1.00951 
1 -1.56146 -0.280297 -1.55716 
2 -1.04689 -0.299275 -0.827561 
1 -1.27004 0.545471 -2.18803 
1 -2.18425 0.635577 -1.46967 
1 0.179292 -0.383119 -2.13796 
1 0.263892 -0.508922 -1.07332 
1 0.483572 0.534995 -1.43976 
1 -0.542901 0.0852874 -1.47821 
1 1.15194 -0.532488 -1.78781 
1 1.4652 0.216638 -1.12309 
1 -3.10928 0.755564 -2.01799 
2 -2.897 1.08387 -1.17976 
1 -2.56458 1.71463 -1.67958 
1 -1.99552 1.54982 -0.797678 
1 -1.23797 0.731558 -0.996281 
1 -1.47131 1.55556 -1.74525 
2 0.413848 1.14404 -2.07015 
1 -0.401258 1.20984 -1.595 
2 0.283648 1.36676 -1.04297 
1 1.62578 1.06518 -1.79826 
1 0.856261 1.77598 -1.57847 
1 -3.10907 -2.34504 -0.315577 
1 -2.24563 -2.9717 -0.659788 
1 -3.04844 -3.37348 -0.0991021 
1 -3.39856 -2.55528 0.71171 
1 -2.35209 -2.69561 0.47006 
1 -1.22812 -2.52565 -0.582446 
1 -1.18192 -2.53437 0.601317 
1 -1.57955 -3.33684 0.0768383 
1 0.491543 -2.48519 -0.700545 
1 -0.337516 -3.13635 -0.799087 
1 0.526379 -3.3613 -0.116443 
1 -0.470776 -3.23514 0.245084 
1 1.52746 -2.95847 -0.495702 
1 0.756608 -2.36159 0.342499 
1 1.36829 -3.21616 0.570579 
1 -3.41191 -0.76318 -0.575339 
2 -2.9294 -1.49829 -0.417135 
1 -2.74363 -1.62864 0.466637 
2 -3.34652 -0.853086 0.309959 
1 -2.11383 -1.92977 -0.351012 
2 -0.965414 -1.64444 -0.587908 
1 -1.3542 -1.54383 0.229795 
1 -0.361499 -2.13515 -0.0630155 
1 -0.61956 -0.896907 -0.225559 
1 0.299511 -1.44173 -0.553064 
2 0.281762 -1.59501 0.309282 
1 -0.447421 -1.46819 0.77352 
1 1.23318 -0.804119 -0.711833 
2 1.843 -1.33259 -0.267441 
1 1.14846 -1.3981 0.264447 
1 -2.44916 -0.803235 -0.0983237 
1 -3.28179 0.0151352 0.115748 
1 -2.28692 0.233054 0.451687 
1 -0.885608 0.159124 -0.0993417 
1 -1.52089 -0.510742 0.391342 
1 -1.90237 0.0417491 -0.548299 
2 -0.105428 -0.132287 -0.360861 
1 0.335163 -0.688639 0.190452 
1 -0.199872 0.741249 -0.645993 
1 0.0608079 0.350565 0.42249 
1 1.35727 -0.353122 0.312624 
1 0.711822 0.169889 -0.408179 
1 1.05794 0.681997 0.432031 
1 -2.65917 0.882652 -0.305559 
1 -3.12506 1.77397 -0.683891 
2 -2.99921 1.53459 0.208716 
1 -0.89142 1.72042 -0.822453 
1 -2.2067 1.45457 0.743785 
1 -1.62426 0.928182 0.0194244 
2 0.413322 0.982303 -0.0819058 
1 -0.59058 1.19819 0.234307 
1 1.1084 1.16104 -0.673017 
1 1.25229 1.72256 0.256682 
1 -2.69652 -3.10537 1.44798 
2 -3.50391 -3.41001 1.66889 
1 -1.62318 -2.82808 1.60512 
2 -0.785484 -2.93491 1.32029 
1 -1.19034 -3.64777 0.993582 
1 -0.105363 -3.52896 1.24107 
1 -0.128138 -2.48865 0.928787 
2 0.514471 -3.12233 0.78511 
1 0.75775 -2.59046 1.49926 
2 -2.74206 -2.22481 1.15097 
1 -3.35983 -1.56405 1.31306 
1 -2.38324 -1.20363 1.67504 
2 -3.1861 -0.773659 1.65318 
1 -0.930209 -2.05019 1.51727 
1 -1.91772 -1.93171 1.07636 
2 -2.0424 -1.1268 0.720637 
1 -1.34144 -1.06605 1.33273 
2 -0.0746617 -1.92383 1.62015 
1 -0.217358 -1.01793 1.70317 
1 0.577756 -1.54658 1.16155 
1 1.58277 -2.04214 1.16025 
1 1.42579 -0.915569 1.24398 
1 -2.76208 -0.608087 0.891124 
1 -3.06184 0.129566 1.63858 
1 -0.961427 -0.195113 1.78881 
1 -1.98155 -0.147628 1.4036 
2 -2.00952 0.685126 1.12966 
1 -1.17517 0.470238 0.904326 
1 0.484536 -0.358399 1.19563 
1 -0.538989 -0.419583 0.809942 
1 -0.21435 0.434881 1.45164 
2 0.60315 0.580834 1.18037 
1 1.40322 0.158775 1.31455 
1 -3.13644 0.801344 0.80344 
1 -2.5404 1.08991 1.70609 
1 -3.18527 1.80992 1.02872 
2 -1.28962 1.35467 0.765413 
1 -1.52266 1.22268 1.59437 
1 -0.55239 1.43442 1.37688 
1 0.326893 1.38595 0.748152 
1 0.544638 1.27312 1.76217 
1 1.47888 1.25682 1.19183 
1 1.78562 0.72425 -2.92415 
1 0.970599 -3.62 1.58681 
1 -3.70017 -2.80735 -2.11596 
1 -3.37379 1.67409 -3.63214 
1 -3.72299 1.11191 -0.0833875 
1 -3.73425 -1.58102 0.102415 
2 -0.787706 -3.66674 -1.37027 
1 0.228699 1.82155 -0.256017 
1 -3.3607 -3.69631 0.845542 
1 1.86119 -3.06398 1.52929 
1 1.88213 -2.46449 -1.42001 
1 1.93695 -2.17505 0.16725 
1 1.87693 0.478732 -0.183355 
1 1.89517 -3.25538 -2.44272 
1 2.01013 -3.51422 -3.4632 
1 2.43633 -2.57559 -3.24706 
1 2.96828 -3.3738 -2.65213 
1 2.82239 -2.33546 -2.29749 
1 3.4834 -2.79628 -3.49513 
2 2.92947 -3.51605 -3.56464 
1 2.52474 -1.49677 -2.88762 
1 2.08514 -0.408217 -3.03039 
1 3.12648 -0.605182 -2.64243 
1 2.80827 0.448567 -2.53083 
1 2.57199 0.339876 -3.56691 
1 2.36619 1.49443 -2.5642 
1 3.24593 1.10406 -3.27171 
1 2.67155 -3.13269 -1.6467 
2 2.26738 -1.78116 -1.86584 
1 2.14135 -1.35613 -1.10199 
1 2.23911 -0.905902 -2.0361 
1 3.19355 -1.41814 -1.93749 
1 2.90196 -2.15309 -1.21712 
1 3.06812 -0.870828 -0.981455 
2 1.90993 -0.530666 -1.28926 
1 1.92085 0.0883717 -2.08558 
1 2.5292 0.0710831 -1.19373 
2 2.99165 -0.501011 -1.77685 
1 3.481 0.228372 -1.73309 
2 2.04155 0.832157 -1.00744 
1 2.04085 1.71949 -1.03759 
1 3.45253 1.33402 -2.2477 
1 2.68674 1.04552 -1.58607 
1 2.62778 -2.79344 -0.412748 
2 3.38154 -2.21814 -0.409999 
1 2.40856 -3.07713 0.645235 
1 3.06597 -2.31706 0.440628 
1 3.34764 -3.38521 0.124458 
2 2.16724 -2.11356 -0.686072 
1 2.15368 -1.16637 0.5281 
1 2.73335 -1.59098 -0.266211 
1 2.19981 -0.547884 -0.388994 
2 1.87459 0.597896 0.713862 
1 3.18364 -0.631751 0.0992629 
1 2.3479 -0.144767 0.654939 
2 2.68311 0.12372 -0.145716 
1 3.40435 0.15879 -0.61969 
1 3.20867 0.407806 0.494976 
2 1.89829 1.353 -0.22869 
1 2.72475 1.01094 -0.450408 
2 3.0378 1.66369 0.128872 
1 2.369 1.26946 0.556174 
1 3.30713 -3.09111 1.18789 
1 2.64066 -2.39326 1.61582 
1 2.21465 -1.41738 1.76332 
2 2.40984 -1.9264 0.904646 
1 3.08189 -1.3688 0.983654 
1 2.70224 -0.487428 1.6229 
1 2.34067 0.592027 1.48657 
1 3.36369 0.383672 1.61961 
1 3.35859 1.31863 1.00231 
1 2.49686 1.63947 1.65524 
1 2.90233 -0.704506 -3.69814 
2 3.4188 -2.16044 1.24389 
2 2.63232 -3.55466 1.4708 
1 2.18296 1.34958 -3.73264 
2 3.67405 0.578379 -2.63296 
1 3.68113 1.1143 -1.17887 
1 3.56536 -1.81738 -2.90714 
1 3.58791 0.104515 -3.41157 
1 3.63096 -2.95844 -0.837529 
1 3.66738 -0.494287 1.04704 
1 3.56288 -3.69505 -1.58818 
1 -1.75699 3.67115 -1.30828 
2 -2.18762 1.87115 1.5495 
1 -3.15577 3.6667 -2.32883 
1 -1.98739 2.05408 -2.60226 
1 1.68984 2.16217 -3.11072 
2 -2.82508 3.14323 -3.0253 
1 -3.46301 2.58864 -3.11006 
1 -2.49653 2.33038 -3.47908 
1 -2.02713 3.12658 -2.6429 
1 -1.33464 2.35169 -3.46821 
1 -1.08752 2.56318 -2.3865 
2 -1.22377 3.12484 -3.07525 
1 -0.329869 2.43276 -3.11239 
1 0.60036 3.34221 -3.11672 
1 -0.438087 3.49731 -2.98546 
1 0.663111 2.25866 -3.46536 
1 0.834417 2.53928 -2.44652 
1 1.65741 3.18441 -2.74966 
1 -3.5772 2.11872 -1.58666 
1 -0.000938932 1.91174 -2.24448 
2 -0.741003 2.04515 -1.72047 
1 -2.88953 2.64831 -2.20549 
2 -2.44683 3.30897 -1.84502 
1 -2.79683 2.72401 -1.01568 
2 -3.43262 3.01723 -1.58144 
1 -1.12122 3.63459 -2.15985 
1 -1.92519 2.59658 -1.68521 
1 -1.65214 2.58424 -0.676251 
1 -0.932807 2.86981 -1.38455 
1 -0.118833 2.96003 -2.10582 
1 -0.0285053 2.24719 -1.21502 
1 -0.0488528 3.3394 -1.10598 
1 1.76786 2.29345 -1.95751 
1 0.944159 2.9919 -1.49237 
1 -3.68803 2.18126 0.129295 
1 -2.42502 2.16433 -0.0188879 
1 -1.3861 1.93263 0.102648 
1 1.17417 2.28107 -0.677245 
1 -3.65604 3.38947 -0.608336 
2 -3.64976 2.50937 -0.713833 
1 -2.27009 3.62455 0.745946 
1 -3.016 3.01876 0.152503 
1 -2.21959 3.43294 -0.37189 
1 -0.979262 3.54268 -0.540204 
1 -1.43393 2.98687 0.345517 
1 -0.591076 2.57878 -0.336028 
1 0.408586 2.94729 -0.248743 
1 -0.364304 3.2159 0.490612 
1 0.505454 2.42048 0.658772 
1 0.684493 3.44952 0.681289 
1 1.27934 3.43566 -0.573587 
1 1.42557 2.80053 0.244469 
1 -1.47821 2.17443 1.11584 
1 -0.511097 2.19067 0.657866 
2 0.89013 1.9336 1.28978 
1 -2.46944 2.58582 0.99574 
1 -2.93897 3.30001 1.72218 
1 -3.61901 2.78269 1.01679 
2 -1.68633 3.0463 1.20561 
1 -0.797402 2.92897 1.46256 
1 -1.90876 3.6656 1.80235 
2 0.119155 3.03903 1.22291 
1 0.0609095 2.25595 1.63139 
1 1.82656 2.24444 1.0425 
1 1.84139 3.40382 1.06464 
1 0.991804 2.79003 1.53089 
1 -3.72431 3.62936 -3.21845 
1 -1.9293 3.22962 -3.71942 
1 2.74902 3.71251 -0.809724 
1 2.12715 3.59046 0.0291573 
1 3.0343 2.14733 -3.06645 
2 2.33644 2.54054 -2.60939 
1 3.45656 3.0159 -2.30862 
1 2.70411 3.17869 -3.12325 
1 2.12454 2.81778 -0.977797 
1 3.19137 2.86206 -1.25606 
1 2.44108 3.25011 -2.00563 
1 2.84327 2.17819 -1.9385 
1 2.24004 2.13327 -0.0674923 
1 3.13204 1.94244 -0.730567 
1 2.96971 2.86868 -0.159736 
2 2.27912 2.83733 0.496179 
1 3.44922 2.14584 1.76135 
1 2.90916 2.27423 0.786624 
1 2.90507 3.38161 0.804644 
1 2.4987 2.80009 1.6679 
1 3.39192 3.39747 1.76031 
2 3.63844 2.16656 -2.4249 
2 3.61525 3.24181 0.27958 
1 -3.50406 -2.50108 1.85048 
2 1.31124 -1.55316 1.86174 
1 -0.218755 -0.691547 3.71501 
1 -2.4549 -2.21754 1.96928 
1 -0.866055 -3.6095 1.99774 
1 -0.240206 -2.73493 1.99444 
2 1.44129 -3.30917 2.22766 
2 -0.952397 -1.03032 2.19635 
1 0.882913 -0.78106 2.14255 
2 -0.135 -0.209642 2.16838 
1 0.627837 0.265943 2.08838 
1 -3.52308 1.18171 1.97618 
1 1.52429 0.882822 2.16512 
1 -3.21856 -3.37165 2.47394 
2 -2.99344 -2.4977 2.61551 
1 -2.99506 -2.92517 3.41799 
2 -2.35396 -3.5583 3.34774 
1 -2.22543 -3.05771 2.57661 
1 -1.8761 -2.87297 3.5817 
1 -1.16377 -2.73814 2.60548 
1 -0.863965 -3.22408 3.68033 
1 -0.27074 -3.58348 2.87064 
2 0.115832 -2.35739 2.71159 
1 0.0123641 -2.77276 3.46175 
1 0.620466 -3.09706 2.49339 
1 0.846859 -3.44477 3.55896 
1 0.90693 -2.34269 3.12996 
1 1.71431 -3.20466 3.02017 
1 1.55254 -2.35515 2.2611 
1 -3.32329 -1.91618 3.61107 
1 -2.34329 -2.06215 3.04184 
1 -3.14513 -1.56672 2.43333 
1 -2.67921 -1.09183 3.39249 
2 -2.30291 -1.28931 2.59292 
1 -0.953247 -2.10535 3.42119 
1 -1.58121 -1.7258 2.2931 
1 -1.58356 -1.15504 3.21623 
2 -0.692784 -1.23014 3.19277 
1 0.552458 -1.80674 2.21918 
1 -0.526153 -1.77788 2.46384 
1 0.0512228 -1.72419 3.37434 
1 0.031378 -0.932404 2.70797 
2 0.772425 -1.45012 2.97302 
1 1.60852 -1.36523 2.69974 
1 -2.788 -0.552079 2.40426 
1 -3.33778 -0.192766 3.19805 
2 -2.82283 0.45225 3.51818 
1 -2.8206 0.550655 2.60284 
2 -3.69079 0.363622 2.44921 
1 -2.167 -0.132993 3.17866 
1 -1.74882 -0.64844 2.30989 
1 -0.873511 -0.382101 2.84388 
1 -1.76556 0.463913 2.27671 
1 -1.36087 0.640396 3.23311 
2 -0.603329 0.168624 3.50795 
1 -0.61019 0.565795 2.43316 
2 0.531604 0.665774 3.52196 
1 0.135687 0.0757356 3.01878 
1 0.909776 -0.645263 3.26653 
1 1.83019 -0.208371 2.25511 
1 1.18204 0.365251 3.00589 
2 -2.83177 1.44703 2.49835 
1 -2.49318 1.26185 3.33351 
1 -3.6414 0.849704 3.2384 
1 -1.9794 1.62902 2.46533 
2 -1.15881 1.25492 2.3845 
1 -1.13433 1.66618 3.14697 
1 -0.29902 1.01335 3.39422 
1 -0.264088 1.56436 2.44814 
1 0.698488 1.29097 2.81406 
2 0.356339 1.5959 3.54673 
2 1.55807 1.21735 3.01478 
2 1.75454 0.559787 3.6618 
1 3.30759 -1.5643 2.02713 
2 2.69007 0.189326 2.22668 
2 2.30334 -2.86577 2.36818 
1 2.71032 -2.94254 3.21668 
1 3.15918 -3.15798 2.24862 
1 1.89885 -2.22703 3.36337 
1 2.04686 -1.26807 3.67112 
1 2.60875 -0.896824 2.67756 
1 2.57699 -2.03369 2.61061 
1 2.99 -1.84852 3.61133 
1 1.93758 -0.295132 3.35699 
1 2.21618 0.610917 2.90837 
1 3.11738 0.0339253 2.99684 
1 2.24139 1.6856 2.70412 
1 3.05695 0.997577 2.45882 
2 2.93579 0.881706 3.34323 
1 3.09988 1.73684 3.35679 
1 3.56092 -3.60919 3.22719 
1 3.6105 -2.4199 2.86474 
1 3.59898 -1.12739 3.06831 
1 3.6238 -0.501366 2.1909 
2 1.63279 3.2443 1.90228 
1 1.38776 1.93733 2.05973 
1 -1.43725 3.71493 2.89634 
1 -2.94242 2.18024 1.95766 
1 -1.09807 2.10378 2.09564 
1 -2.01633 2.6352 1.95764 
2 -1.32385 3.10172 2.19702 
1 0.192726 3.32584 2.05774 
1 -3.54342 1.91534 2.78414 
2 -1.93749 1.96054 3.38317 
1 -0.268176 2.17852 3.34578 
1 1.36531 2.06509 3.22404 
1 -2.60339 2.35443 2.94028 
1 -3.49919 2.99996 2.62282 
1 -2.41305 3.35042 2.67851 
2 -3.28531 2.45631 3.47145 
1 -2.99633 3.26678 3.55455 
1 -1.55808 2.63489 2.93621 
1 -0.800235 3.15296 3.57598 
1 0.298326 3.10192 3.35971 
1 -0.55624 2.85942 2.56773 
1 0.52078 2.37697 2.58751 
1 1.10063 3.42046 2.62455 
1 1.43032 3.08797 3.64278 
1 2.27857 3.70938 2.24425 
1 1.91336 2.73258 2.58848 
1 2.33667 2.45986 3.57717 
2 3.1199 3.45764 2.58749 
1 2.97022 2.57365 2.62146 
1 3.38154 2.8323 3.5489 
1 2.53168 3.44948 3.24074 
