ITEM: TIMESTEP
1403
ITEM: NUMBER OF ATOMS
500
ITEM: BOX BOUNDS xy xz yz pp pp pp
-3.7345 3.7345 0
-3.7345 3.7345 0
-3.7345 3.7345 0
ITEM: ATOMS type x y z 
1 -0.592476 2.56572 -0.340331 
1 0.507336 0.5455 -1.43903 
1 1.86742 0.444167 -0.182011 
1 -0.107188 -2.46349 0.914787 
1 2.71791 0.985014 -0.453198 
1 3.13701 -0.564736 -2.62102 
1 0.268974 -0.505692 -1.06773 
1 -1.59506 -3.33927 0.0598423 
1 2.16183 -1.3856 -1.10769 
1 2.93726 -0.652094 -3.72536 
1 -3.19964 1.81293 1.02571 
1 1.13473 -1.41026 0.232813 
1 -0.170523 0.750031 -0.63909 
1 -1.42156 3.7007 2.86971 
1 2.47188 2.81972 1.6579 
1 -1.33375 2.37685 -3.46962 
1 3.44662 1.3268 -2.21195 
1 2.40856 -2.52934 -3.24367 
1 2.4859 3.27818 -1.96631 
1 2.66489 -3.14467 -1.6203 
1 -3.1315 0.232957 -1.01507 
1 0.97158 -3.61673 1.57091 
1 0.919418 -0.620726 3.25124 
1 -3.53259 2.53555 -3.18481 
1 2.60094 -2.00618 2.61774 
1 -0.63639 -0.885493 -0.230061 
1 2.44042 1.66922 1.66428 
1 1.49431 -1.1612 -2.75079 
1 -0.514378 2.19241 0.666074 
1 -1.38841 1.92179 0.0866316 
1 -1.60874 1.39136 -3.39964 
1 -1.19999 -3.6606 0.979616 
1 -2.80621 2.72856 -1.06833 
1 -3.6189 -1.71072 -1.02131 
1 -1.31104 0.630015 3.23993 
1 0.769114 -2.58849 1.49267 
1 2.19356 -0.588209 -0.368061 
1 0.58171 3.33524 -3.11762 
1 -1.761 3.65694 -1.30081 
1 1.34072 -0.373797 0.30998 
1 1.84087 3.4221 1.04975 
1 -0.125209 -2.32444 -2.15418 
1 0.303311 3.10304 3.34285 
1 -2.77593 -0.575355 2.42714 
1 1.06968 1.51004 -2.61567 
1 -3.20231 -3.41458 2.46695 
1 0.112662 1.35764 -3.15791 
1 -1.01959 3.50084 -0.52786 
1 2.23738 -0.859671 -2.03047 
1 -2.19769 0.603786 -1.46597 
1 3.63626 -0.494754 2.2122 
1 -1.56832 -3.48741 -3.0573 
1 0.0462515 0.357066 0.399204 
1 0.0428161 -0.923746 2.7009 
1 1.8993 -2.19694 3.35667 
1 -0.78851 2.93827 1.46043 
1 2.75449 -2.33669 -2.27665 
1 0.683971 3.429 0.671617 
1 1.77014 2.39724 -1.87682 
1 0.899952 -2.31702 3.12276 
1 2.88079 2.25742 0.790378 
1 -0.28962 -2.14049 -3.19297 
1 3.65771 -0.527443 1.08615 
1 2.22137 1.52973 -2.45119 
1 -0.504479 -3.21363 0.255995 
1 1.38012 -3.2541 0.481854 
1 3.44518 -2.78195 -3.48229 
1 2.9809 -1.82764 3.63155 
1 2.13456 -0.359919 -3.04384 
1 2.05933 1.70919 -1.04978 
1 -1.55284 -0.272791 -1.55519 
1 2.67658 -2.37647 1.61702 
1 -3.54556 -0.7137 -1.60552 
1 0.897649 -0.780331 2.12299 
1 3.1646 -3.15444 2.25954 
1 0.589936 -1.52644 1.15843 
1 -2.54067 -1.63774 -1.26954 
1 -0.53052 1.40231 1.36476 
1 -1.99118 1.63225 2.45535 
1 0.421635 2.89761 -0.260358 
1 -0.37193 3.2285 0.462494 
1 -3.131 -1.60577 2.43291 
1 2.24647 0.668362 2.90193 
1 -0.976883 -2.1108 3.43003 
1 0.695635 -1.92572 -2.71066 
1 3.6056 -2.97046 -0.856351 
1 2.92633 -3.35958 -2.66836 
1 -3.58654 2.11119 -1.57317 
1 -0.855477 -3.59432 1.97805 
1 3.44159 2.97894 -2.3395 
1 0.672169 -3.38476 -1.20249 
1 -0.520016 -1.7817 2.46134 
1 -3.483 -2.5139 1.84345 
1 1.43792 0.154656 1.33871 
1 1.29268 -1.90389 -0.736724 
1 -2.22715 1.44005 0.739421 
1 -1.47932 2.97068 0.336987 
1 3.4339 2.12021 1.76522 
1 -1.56622 -1.71692 2.29555 
1 -3.01455 0.746203 -3.16672 
1 -2.78439 -1.57212 -3.01858 
1 1.88408 -2.45795 -1.48642 
1 0.344701 1.34873 0.745697 
1 3.69354 -2.77418 -2.09145 
1 -0.949665 -0.18325 1.78912 
1 -3.37738 -3.69948 0.85838 
1 -2.42342 3.29127 2.68659 
1 0.0455675 -1.72254 3.37114 
1 2.48032 3.49285 3.21553 
1 2.38161 0.622372 1.44657 
1 1.66811 3.24243 -2.70553 
1 -3.62391 0.84044 3.22217 
1 3.1677 -1.40313 -1.93105 
1 -1.9144 0.0354005 -0.533477 
1 -2.24033 3.40812 -0.385794 
1 3.33757 -1.54366 2.01539 
1 2.22534 1.4028 -3.70349 
1 -1.73287 -0.650622 2.32193 
1 3.3906 0.141763 -0.593941 
1 3.72776 3.64217 -3.21368 
1 -1.49162 1.5638 -1.7504 
1 3.11678 0.0836054 2.95212 
1 2.69725 -2.911 3.22228 
1 0.515074 2.3909 0.661474 
1 1.40218 1.94596 2.06211 
1 -0.897773 -3.21857 3.67037 
1 3.28922 -3.11448 1.19893 
1 1.9655 -0.254855 3.35485 
1 -2.45825 2.579 1.00598 
1 -3.09916 1.66735 -2.65836 
1 -2.62135 -3.5148 -3.23283 
1 1.36337 2.07446 3.21484 
1 2.16389 3.55307 0.0100879 
1 -1.98681 2.6153 1.95405 
1 0.149784 0.0955784 3.00998 
1 -1.92666 3.26438 3.71971 
1 1.60341 -1.34391 2.70359 
1 1.72786 2.23285 -3.09259 
1 -2.22871 0.00943949 -2.39542 
1 -0.445323 3.49814 -2.95012 
1 -0.276531 1.03237 3.38541 
1 1.20631 2.2699 -0.675376 
1 -0.43604 -1.45637 0.762107 
1 1.53553 1.03229 -1.74355 
1 -0.249212 1.59956 2.45924 
1 0.174196 3.32664 2.04136 
1 -0.100256 -3.5231 1.22375 
1 2.94659 2.12771 -2.99004 
1 -1.08876 2.58762 -2.41505 
1 3.0739 -1.42872 0.980911 
1 -3.32341 0.00657462 0.152057 
1 1.71904 -2.15977 -2.48292 
1 -3.22521 1.6706 -3.73309 
1 1.88981 -2.22557 0.141437 
1 2.62406 -0.88377 2.68678 
1 -2.685 -1.10504 3.39457 
1 2.52078 -1.47032 -2.86837 
1 2.69717 -0.47868 1.64331 
1 2.01003 -3.48773 -3.45263 
1 -1.98742 2.0412 -2.61284 
1 -2.94078 3.27906 1.7133 
1 -1.25698 -2.52714 -0.603522 
1 1.96364 0.137891 -2.0779 
1 -0.385968 1.21908 -1.58539 
1 1.30841 -2.64827 -3.34666 
1 -0.934113 -1.28863 -3.31628 
1 0.877585 1.82129 -1.58076 
1 -1.97722 -0.151391 1.41277 
1 2.34475 1.27639 0.543649 
1 -0.919153 1.72851 -0.8518 
1 -1.99707 0.428797 -3.38268 
1 -1.22316 -1.04183 -2.22298 
1 -1.25132 0.563062 -2.18653 
1 -3.504 2.96215 2.61086 
1 3.0825 1.06609 2.41534 
1 -2.02428 1.51398 -0.797711 
1 3.45312 0.234332 -1.75195 
1 0.900145 -3.6139 -2.22495 
1 0.698659 2.28501 -3.45052 
1 -2.08704 -1.73456 -2.24403 
1 -1.74756 0.458383 2.29358 
1 2.15217 -1.23335 0.53022 
1 -3.69742 2.16544 0.131224 
1 -1.39599 -1.76285 -1.40383 
1 3.35813 -3.38611 0.115343 
1 0.884366 2.99067 -1.45 
1 1.35057 -1.52332 -1.74722 
1 -0.416837 -2.06179 -1.12943 
1 -2.68467 -3.12321 1.46043 
1 0.616035 -3.09067 2.48202 
1 -2.81135 0.521672 2.60437 
1 0.299347 -1.45594 -1.61768 
1 2.21914 -1.42926 1.7838 
1 -1.33058 -1.06699 1.34409 
1 0.539888 1.29323 1.77175 
1 3.10459 -2.35763 0.424432 
1 3.53773 -1.85005 -2.87899 
1 0.712741 0.162752 -0.401067 
1 -1.15688 3.63273 -2.16151 
1 -2.41461 2.17829 -0.0083216 
1 2.60981 -2.81475 -0.413785 
1 -2.33379 0.216094 0.472989 
1 0.0513562 1.90883 -2.2482 
1 3.1693 -0.662845 0.131456 
1 2.65313 1.003 -1.5901 
1 -2.645 2.27337 2.99595 
1 1.2676 3.46567 -0.553617 
1 -1.90398 3.64681 1.81689 
1 -0.663166 -0.984211 -1.29701 
1 -1.48337 2.17269 1.1052 
1 3.33156 2.94012 3.52408 
1 -0.235127 2.16349 3.37426 
1 0.290697 -1.4474 -0.545019 
1 -3.10988 0.772009 -2.00017 
1 3.61329 -2.39136 2.85285 
1 3.13371 1.92129 -0.735776 
1 -2.93793 2.62471 -2.25669 
1 -0.0867177 2.956 -2.08781 
1 -2.18394 1.04295 -2.50505 
1 -3.0043 -2.60685 -1.37986 
1 1.8197 0.71515 -2.94248 
1 -0.840573 -0.376959 2.84305 
1 1.8456 -3.02014 1.49247 
1 2.52128 0.030463 -1.17053 
1 -3.62298 3.38142 -0.605365 
1 1.42336 2.79776 0.236554 
1 -0.580844 0.591725 2.41533 
1 3.08101 -0.888294 -0.94646 
1 -0.187928 -1.28339 -2.53931 
1 1.84985 -0.194403 2.27428 
1 -1.60583 -0.994522 -0.715123 
1 1.21484 0.387277 2.99994 
1 0.355979 -3.04151 -2.98944 
1 0.883071 0.437226 -2.44861 
1 -2.21045 -3.08259 2.58813 
1 -0.547371 -0.416106 0.81063 
1 -0.888271 0.638206 -3.23477 
1 0.615428 -0.67077 -3.05622 
1 -2.88127 -3.67404 -1.26582 
1 -2.2258 -3.42537 -2.18486 
1 -3.03951 3.23622 3.55248 
1 0.180193 -0.372957 -2.12241 
1 1.58006 -2.00635 1.13524 
1 -1.91532 -1.93841 1.09962 
1 -2.06666 3.11133 -2.67658 
1 -1.14113 1.67827 3.15272 
1 1.47086 1.24148 1.18612 
1 -3.02022 3.00247 0.18117 
1 2.83995 0.498782 -2.57695 
1 0.544734 2.38891 2.57485 
1 2.83479 2.15051 -1.89368 
1 3.3767 0.366657 1.62492 
1 -1.14371 -2.08674 -2.50414 
1 0.107748 0.261826 -3.35754 
1 2.91893 3.36963 0.801924 
1 -3.38053 -2.59602 0.708728 
1 -1.19865 -2.51809 0.597086 
1 3.6185 0.117468 -3.38962 
1 2.95461 2.57931 2.60363 
1 -1.96585 -2.59634 -1.63521 
1 3.20683 2.84626 -1.24055 
1 2.41029 -3.09957 0.629607 
1 3.38814 1.15354 -3.27114 
1 0.316308 -0.707384 0.199249 
1 -1.25523 -0.309039 -3.65914 
1 -2.92251 2.14911 1.97034 
1 -1.58137 -1.16689 3.2259 
1 -3.12053 1.76927 -0.674711 
1 -3.13355 -2.61098 -2.92612 
1 -1.91135 -2.88166 3.59916 
1 0.837922 -2.45968 -1.7107 
1 -0.942013 -2.84142 -1.64619 
1 -2.72357 -1.67355 0.459084 
1 2.63385 0.413261 -3.60653 
1 1.46087 0.163887 -1.11465 
1 0.442091 -2.49273 -0.670829 
1 3.71957 1.10477 -0.05474 
1 1.50866 -2.94837 -0.576203 
1 3.67852 1.08888 -1.15487 
1 1.1489 0.124036 -3.46085 
1 1.71242 -3.63935 -1.45002 
1 2.21986 2.133 -0.0721129 
1 3.16688 1.86402 3.45363 
1 -2.14474 -0.136072 3.18698 
1 -0.59754 1.20555 0.224355 
1 -0.176464 0.624671 -2.4027 
1 -0.223687 -2.71315 1.9702 
1 -3.48245 1.16999 1.91676 
1 -1.57557 2.61878 2.93835 
1 2.81196 3.70132 -0.797795 
1 -3.40487 -0.768342 -0.550673 
1 -1.6375 0.905764 0.0378116 
1 1.16017 1.21704 -3.6488 
1 -3.5982 1.84932 2.71968 
1 0.66023 0.26966 2.08902 
1 -2.1119 -1.93595 -0.366891 
1 -0.390674 -3.1435 -0.791732 
1 -2.45132 -0.810719 -0.0800556 
1 1.56739 0.903487 2.15555 
1 1.22379 -0.840864 -0.724806 
1 -0.129353 -3.45227 -1.9492 
1 -2.38284 -1.2205 1.69073 
1 -2.49492 2.40302 -3.4361 
1 -1.3762 -1.51649 0.250416 
1 1.56615 -2.33704 2.25481 
1 1.7857 2.25084 1.04164 
1 -0.550435 2.8286 2.59284 
1 -2.67717 -0.900086 -2.16943 
1 -0.923418 -2.04751 1.5129 
1 0.709827 1.27582 2.80514 
1 -2.75607 -0.291452 -3.37239 
1 1.42913 3.11158 3.65194 
1 2.99103 2.84818 -0.154345 
1 -3.02009 -2.92974 3.42268 
1 -3.35419 -1.5832 1.28177 
1 1.06512 0.643864 0.447037 
1 -0.777493 3.1739 3.58143 
1 -0.213271 -0.996565 1.69559 
1 -0.93067 2.83703 -1.39873 
1 2.12908 2.84828 -0.925578 
1 1.09713 3.4382 2.6092 
1 -3.25912 -1.79835 -2.05769 
1 -1.54545 -0.483205 0.423224 
1 3.5439 -3.70949 -1.61335 
1 -2.33741 -2.70644 0.479137 
1 -3.02418 -3.38525 -0.076631 
1 -2.7782 -0.656063 0.910734 
1 -0.192268 -0.683596 3.70864 
1 1.1641 -0.517729 -1.83937 
1 -2.25327 -2.97744 -0.687616 
1 0.515477 -0.348968 1.17501 
1 0.976546 2.78816 1.54232 
1 2.25331 -3.71221 2.22038 
1 -2.50918 -0.594797 -1.16098 
1 2.90268 -2.16144 -1.21116 
1 -1.83763 -1.83081 -3.46059 
1 -3.34151 -1.93565 3.64199 
1 -1.12979 0.486966 0.913055 
1 -1.92063 -0.845167 -3.00795 
1 -0.0764037 3.34754 -1.06334 
1 1.24501 1.6942 0.24085 
1 2.32711 2.48992 3.54698 
1 -0.524746 0.0977782 -1.46706 
1 -0.300353 2.44241 -3.09712 
1 0.221533 1.80069 -0.264776 
1 -3.17879 0.793691 0.838707 
1 -1.93562 2.60751 -1.71637 
1 -1.61766 -2.84415 1.58871 
1 1.4714 -0.899859 1.24712 
1 -3.58617 -0.950057 -3.35029 
1 -3.36114 -0.218662 3.20658 
1 -0.702439 -2.99609 -2.74345 
1 -0.89304 0.166639 -0.105988 
1 1.89919 2.76687 2.57765 
1 -1.14524 -2.73256 2.58336 
1 -3.11926 -2.3637 -0.325979 
1 3.38781 3.39152 1.77715 
1 1.13319 1.14235 -0.6989 
1 -1.08672 2.0807 2.08566 
1 -3.34709 -0.166455 -2.50899 
1 3.5551 -3.54393 3.22516 
1 -2.69977 0.866301 -0.273376 
1 -1.50773 1.22464 1.59858 
1 -0.0198673 2.24773 -1.21816 
1 2.31871 -0.18953 0.677487 
1 0.468256 -3.40113 -0.124781 
1 2.27858 1.72952 2.73224 
1 -2.27721 3.62196 0.756074 
1 -1.67245 2.57111 -0.695767 
1 -0.160076 0.427603 1.44358 
1 -3.05816 0.0855123 1.64344 
1 1.86843 -3.18964 -2.43239 
1 0.0427382 2.26046 1.63386 
1 -3.17077 3.65435 -2.32691 
1 3.3153 1.3119 1.02141 
1 1.03137 -1.52621 -3.65213 
1 2.67079 3.1737 -3.12866 
1 -1.23471 0.720978 -1.00264 
1 -2.08488 -2.60569 -2.83434 
1 -3.72027 -1.59855 0.0885917 
1 0.00866006 -2.78019 3.47351 
1 -0.407461 -2.12713 -0.0656999 
1 2.72531 -1.64462 -0.257852 
1 0.82446 -3.44132 3.56009 
1 -0.870742 1.54446 -2.62495 
1 0.552508 -1.81473 2.21392 
1 1.6959 -3.18336 3.01766 
1 2.06407 -1.22774 3.67439 
1 -2.3707 1.17119 3.34371 
1 -0.638408 -0.320038 -2.7859 
1 -2.58892 1.71413 -1.69499 
1 -2.43171 -2.24231 1.99216 
1 0.787503 -2.39419 0.34248 
1 0.871042 2.56686 -2.43261 
1 -3.64608 2.77033 1.02248 
1 3.61006 -1.17093 3.06011 
1 -0.279412 -3.59321 2.86962 
1 -2.50577 1.0261 1.7029 
1 3.19371 0.378576 0.534854 
1 -2.35273 -2.07364 3.06263 
2 0.0997545 -2.36464 2.71888 
2 0.675606 0.604369 1.22597 
2 -2.87819 1.07214 -1.15148 
2 1.79674 0.593806 3.65323 
2 2.66965 0.246362 2.20522 
2 -2.47195 1.49034 -3.26295 
2 3.00832 -0.525541 -1.74122 
2 -0.814013 -3.70288 -1.36229 
2 -3.51058 -3.40274 1.66963 
2 -2.99372 -2.53427 2.61505 
2 2.27122 2.8246 0.51327 
2 -3.39531 -0.848717 0.339971 
2 -2.65797 -2.4507 -2.18323 
2 3.3798 -2.23456 -0.427884 
2 -1.47652 -2.9688 -2.32178 
2 0.466764 1.15828 -2.05976 
2 3.62825 3.25427 0.281824 
2 2.66723 0.105558 -0.115412 
2 -0.0514484 -3.63726 -3.68965 
2 0.419203 1.62179 3.53218 
2 -1.96775 0.679446 1.10127 
2 -2.18627 1.84353 1.55012 
2 2.33935 2.58925 -2.53053 
2 1.43858 -3.27092 2.21077 
2 -2.90139 3.133 -3.02099 
2 -1.46487 -0.0308822 -2.83757 
2 -1.25768 3.16408 -3.08697 
2 -2.48592 3.27033 -1.85075 
2 -0.995319 -1.64036 -0.587981 
2 -0.646103 -1.65705 -1.88289 
2 -1.94112 1.96199 3.45048 
2 -2.42158 -3.5739 3.33565 
2 2.25288 -1.72923 -1.90923 
2 0.710528 -1.12378 -2.3131 
2 -1.28746 -2.56267 -3.28064 
2 0.475923 0.986277 -0.0877003 
2 -0.775466 -2.93221 1.2925 
2 1.88507 0.565937 0.705712 
2 0.54712 -3.13436 0.782652 
2 1.77227 -1.86951 -3.28909 
2 -3.4327 2.44605 3.37374 
2 -0.569133 0.175396 3.51901 
2 -2.80158 0.407489 3.50898 
2 1.20722 -3.5046 -3.07061 
2 -3.68395 0.399605 2.42315 
2 -2.05053 -1.13218 0.761688 
2 0.321446 1.37364 -1.05444 
2 0.282795 -1.66489 0.315702 
2 3.45434 -2.19537 1.22411 
2 0.922907 1.9283 1.27998 
2 -3.19425 -0.820181 1.68896 
2 -2.74563 -2.24048 1.17887 
2 -2.56837 -2.3242 -3.55509 
2 0.204173 -1.39618 -3.30883 
2 -3.57758 -1.05994 -2.44998 
2 -1.29039 1.36143 0.76198 
2 -1.19895 1.20958 2.42183 
2 -0.118541 -0.139241 -0.358622 
2 3.73023 0.607002 -2.63187 
2 2.13762 -2.1652 -0.70904 
2 0.763518 -1.43044 2.9627 
2 -0.136483 -0.194075 2.18093 
2 3.66026 2.14748 -2.42982 
2 2.92372 -3.53357 -3.58276 
2 1.34898 -0.272903 -2.66399 
2 -3.63223 2.49712 -0.711972 
2 -2.84306 1.41831 2.54187 
2 -0.939403 -1.02768 2.20705 
2 1.88231 -0.578538 -1.27538 
2 -3.00895 1.53863 0.213191 
2 2.31455 -2.8298 2.36479 
2 0.555443 0.690349 3.49962 
2 1.84502 -1.38736 -0.279907 
2 2.41221 -2.02962 0.846751 
2 1.05374 -2.75476 -2.50529 
2 2.96527 1.01144 3.31006 
2 -0.708987 1.63539 -3.51081 
2 -0.0766962 -1.89139 1.60961 
2 -1.0436 -0.298874 -0.830869 
2 1.31364 -1.54701 1.85428 
2 1.89602 1.32868 -0.235421 
2 -2.92252 -1.50509 -0.42821 
2 3.12351 3.45966 2.61113 
2 0.0530391 -2.76296 -1.42763 
2 -3.44063 3.02445 -1.62354 
2 1.57526 1.23868 3.00637 
2 0.534709 -2.26787 -3.52079 
2 1.42262 -0.711585 -3.50546 
2 -1.92751 -1.08081 -1.63823 
2 3.01836 1.66403 0.117572 
2 1.6198 3.26451 1.88739 
2 -0.71698 2.03911 -1.78285 
2 2.02528 0.809318 -1.00183 
2 0.0997557 3.02909 1.20051 
2 -0.687134 -1.23432 3.18996 
2 -2.29018 -1.3059 2.60218 
2 -2.86181 -0.0786705 -1.78534 
2 -1.67917 3.04573 1.20683 
2 2.55663 -3.57616 1.41164 
2 -1.29318 3.10061 2.19786 
