ITEM: TIMESTEP
1405
ITEM: NUMBER OF ATOMS
500
ITEM: BOX BOUNDS xy xz yz pp pp pp
-4.10795 3.7345 -0.37345
-3.7345 3.7345 0
-3.7345 3.7345 0
ITEM: ATOMS type x y z 
1 -3.18972 -2.61098 -2.92612 
1 -2.63233 -3.5148 -3.23283 
2 -2.63888 -2.32419 -3.55509 
1 -2.14132 -2.60568 -2.83434 
2 -1.51481 -2.9688 -2.32178 
2 -1.34605 -2.56267 -3.28064 
1 -1.58067 -3.48741 -3.0573 
1 -0.739362 -2.99609 -2.74345 
1 0.321328 -3.04151 -2.98944 
2 -0.0563071 -3.63726 -3.68965 
1 -2.89251 -1.57212 -3.01857 
2 -3.71131 -1.05994 -2.44998 
1 -3.72539 -0.950057 -3.35029 
1 -1.22609 -2.08674 -2.50414 
1 -1.93281 -1.8308 -3.46059 
1 -2.18703 -1.73456 -2.24403 
1 -2.06509 -0.845167 -3.00795 
1 -1.3578 -1.04183 -2.22298 
1 -1.0564 -1.28863 -3.31629 
1 -0.369318 -2.1405 -3.19297 
2 0.461376 -2.26786 -3.52079 
1 0.605195 -1.92572 -2.71066 
2 0.0872596 -1.39618 -3.30883 
1 -0.310484 -1.28339 -2.5393 
2 0.579991 -1.12378 -2.31309 
1 -2.92822 -0.291448 -3.37239 
1 -3.52549 -0.166456 -2.50899 
1 -3.23858 0.7462 -3.16672 
1 -1.4265 -0.30904 -3.65914 
2 -1.65005 -0.0308816 -2.83757 
1 -2.41591 0.00944141 -2.39542 
1 -2.20523 0.428793 -3.38268 
1 -1.1069 0.638207 -3.23477 
1 -0.809132 -0.320038 -2.7859 
1 -0.394421 0.624672 -2.4027 
1 -0.0920668 0.261826 -3.35754 
1 0.46224 -0.670767 -3.05622 
1 -3.36925 1.66736 -2.65836 
2 -2.73319 1.49034 -3.26295 
1 -2.42281 1.04295 -2.50505 
1 -1.13469 1.54446 -2.62495 
1 -1.86503 1.39136 -3.39964 
2 -0.977484 1.63539 -3.51081 
1 -0.141944 1.35764 -3.15791 
2 -2.72216 -2.4507 -2.18323 
1 -3.06069 -2.60685 -1.37985 
1 -2.88429 -3.67404 -1.26582 
1 -2.24126 -3.42537 -2.18486 
1 -2.02276 -2.59634 -1.63521 
1 -0.986668 -2.84142 -1.64619 
1 -0.195713 -2.32444 -2.15418 
1 -0.143464 -3.45228 -1.9492 
2 0.00446462 -2.76296 -1.42764 
1 0.654681 -3.38476 -1.20249 
1 -3.35593 -1.79835 -2.05769 
1 -2.81889 -0.900087 -2.16942 
1 -3.72008 -1.71072 -1.02131 
1 -2.64551 -1.63774 -1.26953 
1 -1.49457 -1.76286 -1.40383 
2 -2.0602 -1.08081 -1.63823 
1 -1.74283 -0.994524 -0.715125 
2 -0.749973 -1.65705 -1.88288 
1 -0.500468 -2.06179 -1.12943 
1 -0.800681 -0.984214 -1.297 
1 0.185418 -1.45594 -1.61768 
2 -3.0446 -0.0786701 -1.78533 
1 -3.6966 -0.713701 -1.60552 
1 -2.66617 -0.594796 -1.16098 
1 -3.32988 0.232955 -1.01507 
1 -1.72592 -0.272791 -1.55519 
2 -1.21538 -0.298878 -0.830869 
1 -1.4662 0.563064 -2.18653 
1 -2.4146 0.603786 -1.46597 
1 0.0121147 -0.372956 -2.12241 
1 0.107534 -0.505688 -1.06773 
1 0.293339 0.5455 -1.43903 
1 -0.716362 0.0977782 -1.46706 
1 -3.33521 0.77201 -2.00017 
2 -3.11852 1.07214 -1.15149 
1 -2.86135 1.71413 -1.69499 
1 -2.2867 1.51398 -0.797713 
1 -1.45748 0.720978 -1.00263 
1 -1.75654 1.5638 -1.7504 
2 0.222128 1.15829 -2.05976 
1 -0.633647 1.21908 -1.58539 
2 0.0660386 1.37364 -1.05444 
1 -3.1878 -2.3637 -0.325977 
1 -2.29112 -2.97744 -0.687612 
1 -3.04164 -3.38525 -0.0766286 
1 -3.43746 -2.59602 0.708729 
1 -2.38882 -2.70644 0.479141 
1 -1.31735 -2.52714 -0.603524 
1 -1.25947 -2.51809 0.597084 
1 -1.61483 -3.33926 0.0598422 
1 0.380005 -2.49273 -0.670832 
1 -0.420221 -3.1435 -0.791732 
1 0.451585 -3.40113 -0.124781 
1 -0.530527 -3.21363 0.255996 
1 -3.55318 -0.768343 -0.550673 
2 -3.03399 -1.50509 -0.42821 
1 -2.82662 -1.67355 0.459088 
2 -3.5396 -0.848719 0.339973 
1 -2.20182 -1.93595 -0.366889 
2 -1.10003 -1.64036 -0.587985 
1 -1.48709 -1.51649 0.250415 
1 -0.487829 -2.12713 -0.0656999 
1 -0.778841 -0.885494 -0.230062 
1 0.176343 -1.4474 -0.54502 
2 0.179312 -1.6649 0.315707 
1 -0.549944 -1.45637 0.762107 
1 -2.59751 -0.81072 -0.0800558 
1 -3.51047 0.00657201 0.152056 
1 -2.53132 0.216098 0.47299 
1 -1.08809 0.16664 -0.105989 
1 -1.70801 -0.483203 0.423225 
1 -2.10289 0.0354037 -0.533477 
2 -0.298304 -0.13924 -0.35862 
1 0.164953 -0.707379 0.199251 
1 -0.394749 0.750027 -0.639088 
1 -0.158331 0.35706 0.399207 
1 0.517874 0.162747 -0.401074 
1 -2.92981 0.866299 -0.273376 
1 -3.39572 1.76927 -0.674712 
2 -3.27261 1.53862 0.213193 
1 -1.1923 1.72851 -0.851799 
1 -2.48588 1.44005 0.739416 
1 -1.86952 0.905762 0.0378135 
2 0.239881 0.986277 -0.0877006 
1 -0.84454 1.20555 0.224354 
1 -2.71524 -3.12321 1.46043 
2 -3.52716 -3.40274 1.66963 
1 -1.66217 -2.84415 1.58871 
2 -0.81558 -2.93221 1.2925 
1 -1.20369 -3.6606 0.979613 
1 -0.110825 -3.5231 1.22375 
1 -0.170738 -2.46349 0.914786 
2 0.517116 -3.13436 0.78265 
2 -2.82033 -2.24048 1.17887 
1 -3.46175 -1.5832 1.28177 
1 -2.50854 -1.22049 1.69073 
2 -3.33996 -0.820182 1.68896 
1 -1.00777 -2.04751 1.5129 
1 -2.00512 -1.93841 1.09962 
2 -2.18065 -1.13218 0.761686 
1 -1.46395 -1.06699 1.34409 
2 -0.168853 -1.89139 1.6096 
1 -0.35017 -0.996566 1.69559 
1 0.47953 -1.52643 1.15843 
1 -2.93212 -0.656061 0.910732 
1 -3.24916 0.0855144 1.64344 
1 -1.12723 -0.183249 1.78911 
1 -2.15638 -0.151387 1.41277 
2 -2.18844 0.679434 1.10125 
1 -1.34086 0.486969 0.913057 
1 0.3462 -0.348966 1.175 
1 -0.713292 -0.4161 0.810629 
1 -0.368182 0.427601 1.44358 
2 0.458657 0.604368 1.22597 
1 -3.4052 0.793691 0.838707 
1 -2.74386 1.02609 1.70292 
1 -3.47701 1.81292 1.02571 
2 -1.54519 1.36143 0.761986 
1 -1.75564 1.22465 1.59857 
1 -0.787376 1.40231 1.36477 
1 0.0905419 1.34874 0.745695 
1 0.288503 1.29323 1.77176 
1 -3.49547 1.6706 -3.73309 
1 -3.82707 -1.59855 0.0885935 
2 -0.815592 -3.70288 -1.36229 
1 -0.055224 1.80069 -0.264775 
1 -3.37914 -3.69949 0.858382 
2 -2.46517 1.84353 1.55012 
1 -3.54403 -2.5139 1.84345 
1 1.25409 -2.64827 -3.34666 
2 1.00475 -2.75476 -2.50529 
2 1.19573 -3.5046 -3.07061 
1 1.6403 -2.15977 -2.48293 
2 1.67902 -1.86951 -3.28909 
1 1.36565 -1.1612 -2.7508 
1 0.920957 -1.5262 -3.65213 
2 1.1759 -0.272902 -2.66399 
2 1.27148 -0.711585 -3.50546 
1 0.674487 0.437229 -2.44861 
1 0.955972 0.12404 -3.46084 
1 0.807459 1.51004 -2.61567 
1 0.912594 1.21704 -3.6488 
1 0.894112 -3.6139 -2.22495 
1 1.70766 -3.63936 -1.45002 
1 0.77418 -2.45968 -1.7107 
1 1.20115 -1.90389 -0.736724 
1 1.24001 -1.52332 -1.74722 
1 1.00326 -0.517728 -1.83937 
1 1.26595 0.163885 -1.11465 
1 1.29718 1.03229 -1.74354 
1 0.599799 1.82129 -1.58076 
1 1.46935 -2.94837 -0.576206 
1 0.72049 -2.39419 0.34248 
1 1.3561 -3.2541 0.481849 
1 1.07911 -0.840862 -0.724808 
1 1.01852 -1.41025 0.232811 
1 1.17269 -0.373798 0.309979 
1 0.846215 0.643867 0.447047 
1 0.889348 1.14235 -0.6989 
1 0.973573 1.69419 0.24085 
1 0.711812 -2.58849 1.49267 
1 1.49365 -2.00635 1.13524 
1 1.32967 -0.899855 1.24711 
1 1.24347 0.154659 1.33871 
1 1.22206 1.24148 1.18612 
1 1.59722 0.715151 -2.94247 
1 0.965689 -3.61673 1.57091 
2 1.72766 -1.38736 -0.279912 
1 3.64553 -2.77418 -2.09145 
1 3.47761 1.10478 -0.0547398 
1 1.80987 -3.02015 1.49247 
1 1.82025 -2.45795 -1.48642 
1 1.81437 -2.22556 0.141437 
1 1.65848 0.444169 -0.182008 
1 1.84119 -3.18964 -2.43239 
1 1.99769 -3.48773 -3.45263 
1 2.3483 -2.52934 -3.24367 
1 2.90759 -3.35958 -2.66836 
1 2.68459 -2.33669 -2.27665 
1 3.39755 -2.78194 -3.48229 
2 2.91368 -3.53357 -3.58277 
1 2.40756 -1.47032 -2.86837 
1 1.96583 -0.359917 -3.04383 
1 2.97852 -0.564741 -2.62102 
1 2.62828 0.49878 -2.57696 
1 2.42647 0.413261 -3.60653 
1 1.95815 1.52973 -2.45119 
1 3.14374 1.15354 -3.27114 
1 2.63539 -3.14467 -1.6203 
2 2.15261 -1.72922 -1.90924 
1 2.04438 -1.3856 -1.10769 
1 2.09364 -0.859668 -2.03047 
1 3.05113 -1.40313 -1.93105 
1 2.82403 -2.16145 -1.21116 
1 2.93871 -0.888298 -0.94646 
2 1.72451 -0.578538 -1.27538 
1 1.77001 0.137899 -2.0779 
1 2.33303 0.0304561 -1.17053 
2 2.84787 -0.525544 -1.74122 
1 3.25468 0.234331 -1.75196 
2 1.79809 0.809318 -1.00183 
1 1.78714 1.70919 -1.04978 
1 3.19356 1.3268 -2.21195 
1 2.41625 1.003 -1.5901 
1 2.56383 -2.81475 -0.413785 
2 3.30481 -2.23456 -0.427881 
1 2.37854 -3.09957 0.629606 
1 3.03574 -2.35763 0.424434 
1 3.34071 -3.38611 0.115344 
2 2.05916 -2.1652 -0.709044 
1 2.02712 -1.23335 0.530219 
1 2.62082 -1.64462 -0.257855 
1 2.03624 -0.588212 -0.368063 
2 1.67004 0.565937 0.705707 
1 3.01571 -0.66285 0.131458 
1 2.14146 -0.189531 0.677486 
2 2.47523 0.105558 -0.115408 
1 3.19679 0.141764 -0.593942 
1 2.98806 0.378576 0.534855 
2 1.64286 1.32869 -0.235423 
1 2.48193 0.985018 -0.4532 
2 2.74844 1.66403 0.117573 
1 2.09421 1.27639 0.543649 
1 3.25822 -3.11449 1.19893 
1 2.60867 -2.37647 1.61702 
1 2.10388 -1.42926 1.7838 
2 2.32697 -2.02962 0.846753 
1 2.95861 -1.42872 0.980913 
1 2.53437 -0.478679 1.64331 
1 2.16376 0.62237 1.44657 
1 3.17164 0.366654 1.62492 
1 3.06298 1.3119 1.02141 
1 2.17023 1.66922 1.66428 
1 2.78314 -0.652093 -3.72536 
2 3.37738 -2.19537 1.2241 
2 2.54872 -3.57616 1.41164 
1 1.96847 1.40281 -3.70349 
2 3.51316 0.607001 -2.63187 
1 3.43735 1.08888 -1.15487 
1 3.44351 -1.85005 -2.87899 
1 3.4259 0.11747 -3.38962 
1 3.5674 -2.97047 -0.856352 
1 3.49735 -0.527442 1.08615 
1 3.54265 -3.70948 -1.61335 
1 -2.13057 3.65694 -1.30081 
1 -3.54021 3.65435 -2.32691 
1 -2.27621 2.0412 -2.61284 
2 -3.24476 3.133 -3.02099 
1 -3.8461 2.53555 -3.18481 
1 -2.8018 2.40303 -3.4361 
1 -2.40895 3.11133 -2.67658 
1 -1.63932 2.37685 -3.46962 
1 -1.40486 2.58762 -2.41505 
2 -1.60261 3.16408 -3.08697 
1 -0.609197 2.44241 -3.09713 
1 0.228221 3.33524 -3.11762 
1 -0.806953 3.49814 -2.95012 
1 0.397683 2.28501 -3.45052 
1 -3.87882 2.11119 -1.57317 
1 -0.230807 1.90883 -2.2482 
2 -1.00566 2.0391 -1.78284 
1 -3.25589 2.62471 -2.25669 
2 -2.83616 3.27034 -1.85075 
1 -3.12937 2.72856 -1.06833 
2 -3.77857 3.02446 -1.62354 
1 -1.52525 3.63273 -2.1615 
1 -2.25272 2.60751 -1.71638 
1 -1.98773 2.57111 -0.695768 
1 -1.25925 2.83703 -1.39873 
1 -0.421244 2.956 -2.08781 
1 -0.318981 2.24773 -1.21816 
1 -0.430507 3.34754 -1.06334 
1 -3.99242 2.16544 0.131221 
1 -2.71025 2.17829 -0.00832532 
1 -1.67123 1.9218 0.0866297 
1 -3.97878 3.38142 -0.605363 
2 -3.94381 2.49711 -0.711969 
1 -2.64504 3.62196 0.756077 
1 -3.35707 3.00247 0.181175 
1 -2.59746 3.40812 -0.385792 
1 -1.38136 3.50084 -0.527859 
1 -1.81459 2.97068 0.336986 
1 -0.907487 2.56572 -0.340329 
1 0.0900295 2.89761 -0.260363 
1 -0.720078 3.2285 0.462494 
1 0.208804 2.3909 0.661472 
1 0.325795 3.429 0.671618 
1 -1.77873 2.17268 1.1052 
1 -0.810725 2.19241 0.666073 
1 -2.77392 2.57899 1.00598 
1 -3.29146 3.27906 1.7133 
1 -3.97133 2.77032 1.02247 
2 -2.01818 3.04573 1.20683 
1 -1.12214 2.93827 1.46043 
1 -2.27305 3.64681 1.8169 
2 -0.238427 3.02909 1.20052 
1 -0.257007 2.26046 1.63386 
1 1.42949 2.23285 -3.0926 
1 0.555973 2.56687 -2.43261 
1 1.31926 3.24243 -2.70553 
1 1.46355 2.39724 -1.87682 
1 0.548102 2.99067 -1.45 
1 0.906094 2.2699 -0.675373 
1 0.907593 3.46568 -0.553617 
1 1.09675 2.79776 0.236555 
2 0.639766 1.9283 1.27997 
1 1.48643 2.25084 1.04164 
1 1.48303 3.4221 1.04974 
1 0.650412 2.78816 1.54232 
1 3.35892 3.64217 -3.21367 
1 2.44018 3.70132 -0.797794 
1 1.79951 3.55307 0.0100894 
1 2.65347 2.12771 -2.99004 
2 2.02316 2.58925 -2.53053 
1 3.10594 2.97893 -2.33949 
1 2.32538 3.1737 -3.12866 
1 1.79995 2.84828 -0.925574 
1 2.87779 2.84626 -1.24055 
1 2.13527 3.27817 -1.96631 
1 2.54054 2.1505 -1.89367 
1 1.92649 2.133 -0.0721132 
1 2.85092 1.92129 -0.735774 
1 2.66189 2.84819 -0.154344 
2 1.94327 2.82459 0.513273 
1 3.14117 2.12021 1.76522 
1 2.58119 2.25742 0.790379 
1 2.56372 3.36963 0.801926 
1 2.14416 2.81972 1.6579 
1 3.03151 3.39152 1.77714 
2 3.36616 2.14748 -2.42982 
2 3.2788 3.25427 0.281822 
1 -0.344811 -0.683594 3.70864 
1 -2.50632 -2.24231 1.99216 
1 -0.862486 -3.59432 1.97805 
1 -0.274754 -2.71315 1.9702 
2 -1.07475 -1.02768 2.20705 
2 -0.313504 -0.194076 2.18093 
1 0.460022 0.26966 2.08902 
1 -3.72764 1.16999 1.91675 
1 -3.21831 -3.41458 2.46695 
2 -3.05374 -2.53428 2.61505 
1 -3.06032 -2.92973 3.42268 
2 -2.4296 -3.5739 3.33565 
1 -2.24304 -3.08259 2.58813 
1 -1.95399 -2.88166 3.59916 
1 -1.19533 -2.73256 2.58336 
1 -0.92357 -3.21857 3.67037 
1 -0.286474 -3.59322 2.86961 
2 0.0312572 -2.36464 2.71888 
1 -0.0390564 -2.78019 3.47351 
1 0.583841 -3.09067 2.48202 
1 -3.43145 -1.93565 3.64199 
1 -2.43577 -2.07364 3.06263 
1 -3.23743 -1.60577 2.43291 
1 -2.81648 -1.10504 3.39457 
2 -2.41161 -1.3059 2.60218 
1 -1.05807 -2.1108 3.43003 
1 -1.6671 -1.71691 2.29555 
1 -1.70975 -1.16689 3.2259 
2 -0.812143 -1.23432 3.18995 
1 0.456514 -1.81473 2.21392 
1 -0.617658 -1.7817 2.46134 
1 -0.055031 -1.72254 3.37114 
1 -0.0977183 -0.923746 2.7009 
1 -2.93388 -0.575358 2.42714 
1 -3.53693 -0.21866 3.20658 
2 -3.00868 0.407487 3.50898 
1 -3.02416 0.521675 2.60436 
2 -3.89065 0.399602 2.42315 
1 -2.32466 -0.136074 3.18698 
1 -1.88707 -0.650621 2.32193 
1 -1.00845 -0.376956 2.84305 
1 -1.9572 0.458379 2.29358 
1 -1.52926 0.630016 3.23993 
2 -0.764625 0.175397 3.51901 
1 -0.797156 0.591722 2.41533 
2 0.334199 0.690353 3.49962 
1 -0.0417207 0.0955793 3.00998 
2 -3.1007 1.41832 2.54187 
1 -2.61598 1.17119 3.34371 
1 -3.85266 0.840439 3.22217 
1 -2.25951 1.63225 2.45535 
2 -1.44615 1.20959 2.42183 
1 -1.41177 1.67827 3.15271 
1 -0.514875 1.03237 3.38541 
1 -0.515915 1.59956 2.45923 
1 0.459311 1.27582 2.80514 
2 0.151389 1.62179 3.53218 
2 1.20427 -1.54701 1.85428 
2 1.4154 -3.27092 2.21077 
1 0.749938 -0.780335 2.12299 
1 1.33549 0.903485 2.15555 
1 0.809802 -3.44132 3.56009 
1 0.829077 -2.31702 3.12275 
1 1.66835 -3.18336 3.01766 
1 1.49627 -2.33704 2.25481 
2 0.648316 -1.43044 2.9627 
1 1.48388 -1.34391 2.70359 
1 0.763728 -0.620725 3.25124 
1 1.00875 0.38728 2.99994 
2 1.3266 1.23868 3.00637 
2 1.58032 0.593809 3.65323 
1 1.67285 -0.194405 2.27429 
1 3.22803 -1.54366 2.0154 
2 2.4706 0.246362 2.20522 
2 2.26931 -2.8298 2.36479 
1 2.65607 -2.911 3.22229 
1 3.1356 -3.15444 2.25955 
1 1.82242 -2.19694 3.35667 
1 1.93873 -1.22775 3.67439 
1 2.48152 -0.883773 2.68678 
1 2.51453 -2.00618 2.61774 
1 2.88556 -1.82764 3.63155 
1 1.79152 -0.254854 3.35485 
1 2.02633 0.668365 2.90193 
1 2.92587 0.0836058 2.95211 
1 2.00538 1.72952 2.73224 
1 2.84246 1.06609 2.41535 
2 2.72797 1.01145 3.31007 
1 3.54558 -3.54392 3.22516 
1 3.54613 -2.39136 2.85285 
1 3.48188 -1.17094 3.06011 
1 3.47427 -0.494756 2.2122 
1 2.25219 -3.71221 2.22038 
1 -2.27661 3.26437 3.71971 
1 -1.79332 3.70071 2.86971 
1 -3.21669 2.1491 1.97034 
1 -1.37749 2.0807 2.08566 
1 -2.3043 2.6153 1.95405 
2 -1.63494 3.10061 2.19786 
1 -0.178864 3.32664 2.04137 
1 -3.87739 1.84932 2.71968 
2 -2.22594 1.96199 3.45049 
1 -0.530024 2.16349 3.37426 
1 -2.94539 2.27337 2.99595 
1 -3.83883 2.96214 2.61086 
1 -2.77471 3.29127 2.68659 
2 -3.74173 2.44605 3.37374 
1 -3.38805 3.23622 3.55248 
1 -1.89324 2.61878 2.93835 
1 -1.12291 3.1739 3.58143 
1 -0.0385649 3.10304 3.34285 
1 -0.87859 2.8286 2.59284 
1 0.238564 2.38891 2.57485 
2 1.26985 3.2645 1.88738 
1 1.11816 1.94597 2.06211 
1 1.07292 2.07446 3.21484 
1 0.738491 3.4382 2.6092 
1 1.08681 3.11158 3.65192 
1 2.88696 1.86402 3.45364 
1 1.57412 2.76687 2.57765 
1 2.01589 2.48992 3.54698 
2 2.76381 3.45965 2.61114 
1 2.63892 2.57931 2.60363 
1 2.99783 2.94012 3.52408 
1 2.11895 3.49286 3.21552 
