ITEM: TIMESTEP
631
ITEM: NUMBER OF ATOMS
500
ITEM: BOX BOUNDS xy xz yz pp pp pp
-3.7345 3.80919 0.07469
-3.7345 3.7345 0
-3.7345 3.7345 0
ITEM: ATOMS type xu yu zu 
1 -2.81212 -2.06282 -2.52117 
1 -3.09551 -3.02646 -2.91734 
1 -2.5375 -2.32087 -3.61365 
1 -2.22203 -3.34621 -3.46348 
1 -1.87478 -2.53877 -2.78667 
1 -0.938202 -2.69593 -2.2253 
2 -1.74972 -3.05041 -2.08983 
1 -0.747058 -2.34253 -3.20125 
1 0.300742 -2.22882 -3.37765 
1 -0.312715 -3.29119 -3.38392 
2 -0.174144 -2.72967 -2.66832 
1 0.616859 -3.05376 -2.78247 
1 -3.20656 -0.406259 -3.31994 
1 -3.05484 -0.979825 -2.39336 
1 -2.67199 -1.33948 -3.31516 
1 -2.3076 -0.478349 -1.86522 
1 -2.11081 -0.50887 -2.99523 
1 -2.03117 -1.40445 -2.40076 
1 -0.993139 -1.60793 -2.48005 
1 -1.61659 -1.68761 -3.37855 
2 -1.26842 -0.928124 -3.01607 
1 -1.34968 -0.645545 -2.18139 
1 0.00870633 -1.89343 -2.40353 
1 0.371003 -0.833736 -3.35799 
2 0.616214 -1.51992 -2.91526 
1 -0.444026 -0.65081 -2.70774 
1 0.467245 -0.941985 -2.23874 
1 -0.576766 -1.35847 -3.50867 
1 -2.66554 -2.85979 -1.87351 
1 -3.44323 -2.77206 -1.15403 
1 -2.73041 -3.31904 -0.401158 
1 -2.46736 -2.35215 -0.867517 
1 -3.35516 -2.23352 -0.185883 
2 -3.57184 -3.09027 -0.342043 
1 -1.64047 -3.31731 -0.224826 
1 -1.76394 -2.23447 -1.74466 
1 -1.90951 -3.24298 -1.24297 
1 -1.37457 -2.4182 -0.760976 
1 -0.741121 -3.09796 -1.25857 
1 -0.646694 -1.99973 -1.47183 
1 0.161559 -2.75243 -1.81679 
1 0.0848971 -2.57006 -0.76494 
1 -0.489472 -3.33226 -0.202066 
1 0.610586 -3.46124 -0.355652 
2 0.663656 -3.09536 -1.16817 
1 -3.19552 -1.82932 -1.55688 
1 -3.5604 -1.10758 -0.839425 
1 -3.34687 -0.204884 -1.62526 
2 -2.98648 -0.989888 -1.51941 
1 -2.62303 -0.516755 -0.878793 
1 -2.69299 -1.41453 -0.321627 
2 -3.45949 -0.226525 -0.741888 
1 -2.20631 -1.38325 -1.29919 
2 -1.41244 -1.4142 -1.74492 
1 -1.56448 -0.308296 -1.14648 
2 -1.93055 -0.947005 -0.488853 
1 -1.22173 -1.28785 -0.917584 
2 -0.804613 -0.524555 -0.759139 
1 -0.583253 -1.84583 -0.313383 
1 -0.482902 -0.938373 -1.65199 
1 0.390188 -1.68154 -1.37314 
1 -0.067321 -0.984198 -0.690417 
2 0.379651 -0.698001 -1.39704 
2 -3.61613 -1.66419 -2.35682 
1 -1.96699 -0.110895 -0.161742 
2 -3.61916 -0.283759 -2.49997 
1 -1.29261 -3.43795 -2.9292 
1 -3.57654 -3.52553 -2.04262 
1 -2.26856 -3.66931 -2.42418 
1 -0.327213 -0.197956 -0.0676043 
1 0.511219 -1.71474 -0.228906 
1 -0.317772 -3.55356 -2.30648 
1 0.852286 -0.0673713 -2.75987 
1 0.935479 -3.56455 -1.89862 
1 -3.58081 -1.90929 -3.18703 
1 1.10741 -0.217267 -1.69701 
1 1.11917 -1.60382 -3.65086 
1 1.12552 -2.11913 -2.57705 
1 1.05662 -0.914062 -0.862062 
1 1.17695 -2.49017 -1.5711 
2 1.1967 -1.77384 -0.99334 
1 1.15604 -2.49839 -0.51521 
1 1.34504 -2.62868 -3.49413 
1 1.39677 -1.06598 -2.80135 
1 1.32658 -1.38282 -1.79567 
1 1.35651 -3.70229 -3.18097 
2 1.38934 -2.92765 -2.34351 
1 1.46211 -3.38184 -0.975638 
1 1.58304 -0.301522 -3.5447 
1 1.54326 -1.54162 -0.171635 
1 0.465497 -0.0125119 -0.779173 
1 -1.20272 0.0116784 -3.06352 
1 -1.7221 -1.7313 -0.0604847 
1 1.88931 -0.192709 -2.47814 
1 -3.35971 -3.30272 1.61132 
1 -3.37609 -3.01594 0.530003 
1 -2.61938 -2.65157 1.26196 
2 -2.58474 -3.35215 0.660064 
1 -2.34375 -2.56373 0.214012 
1 -1.75398 -3.15378 0.89334 
1 -1.08186 -2.55895 0.328333 
1 -0.939445 -2.78789 1.63476 
1 -1.73259 -2.04419 1.00404 
1 -0.0221785 -2.48832 0.320046 
1 0.160035 -2.69975 1.57733 
1 -0.40866 -3.31243 0.901498 
2 0.662576 -3.48995 1.59763 
1 0.70238 -3.12276 0.728947 
1 0.536397 -1.76053 0.854459 
2 0.856274 -2.368 0.286822 
1 -2.77368 -1.71196 0.710506 
2 -2.87122 -0.790731 0.931825 
1 -3.33798 -1.26339 1.52182 
1 -2.24265 -1.20836 1.51937 
1 -2.8499 -0.355296 1.75137 
1 -2.13311 -0.922653 0.473628 
2 -1.01629 -1.66304 0.442929 
1 -1.72593 -0.257774 1.63194 
1 -1.25123 -1.07893 1.05212 
2 -1.57358 -0.255492 0.670467 
1 -0.541477 -1.93785 1.14086 
1 -0.714227 -0.166377 0.931405 
1 -0.270498 -1.1635 0.453945 
1 0.113748 -1.15945 1.62434 
2 0.0958129 -0.552546 0.94731 
1 0.649914 -0.696365 0.126326 
1 -3.6632 -0.375187 0.957254 
1 0.132462 -0.0472032 1.68996 
1 -3.04405 -0.432211 0.079469 
1 -3.69406 -1.26513 0.236048 
1 1.15386 -1.68308 1.70767 
1 0.940355 -0.675148 1.14646 
2 1.21673 -1.26909 0.574951 
1 1.23549 -2.78596 1.62056 
1 1.55259 -2.12102 0.757519 
1 -1.17706 -0.799095 0.0190554 
1 1.62493 -3.17118 0.138579 
1 1.72023 -0.539956 0.215112 
1 1.86044 -0.198301 1.65819 
1 -3.50714 1.48818 -2.3437 
1 -3.32848 0.729473 -3.13392 
2 -2.72566 1.06252 -2.46577 
1 -2.80455 0.159287 -2.47572 
1 -2.07901 0.743356 -2.98158 
1 -2.55981 1.73682 -1.88883 
1 -2.89894 0.441064 -0.594382 
1 -2.96555 0.801949 -1.61555 
1 -2.57007 1.46271 -0.683069 
2 -2.34542 0.221375 -1.31676 
1 -3.49231 1.71661 -1.27297 
1 -3.58367 1.18186 -0.25383 
1 -2.64618 1.34785 -3.65713 
1 -1.94862 0.829407 -1.92844 
1 -1.9043 1.79893 -2.71034 
2 -1.83412 0.0892752 -2.39916 
1 -1.74456 0.711822 -0.86309 
1 -1.66507 1.6969 -1.308 
1 -1.51753 1.51354 -0.159973 
1 -1.12087 1.06029 -2.75105 
2 -1.09975 1.16678 -1.76107 
1 -1.01577 0.3083 -1.99441 
1 -0.692219 1.4398 -0.958999 
1 -0.662323 0.317692 -0.986211 
1 -0.269127 1.06866 -2.11603 
1 -0.22064 1.45018 -3.13137 
2 -2.55243 0.149238 -3.36581 
1 -0.12615 0.831655 -0.195017 
1 -0.131394 0.364235 -2.91842 
1 0.22506 0.938303 -1.19852 
1 0.294486 1.79983 -0.490948 
1 0.779359 1.78986 -2.46375 
1 0.80031 0.772348 -2.0893 
1 0.873879 0.972449 -3.16581 
1 0.969717 0.912687 -0.414328 
2 1.03373 0.568053 -1.24154 
2 1.01161 0.109405 -0.0142586 
1 1.08777 1.54412 -1.38692 
2 1.4812 0.558356 -2.59843 
1 1.55185 0.0390238 -0.723409 
1 1.56075 1.71968 -3.61821 
1 0.0391273 0.0127729 -1.84112 
1 1.77316 1.37104 -2.51341 
1 1.82049 0.684446 -1.66225 
2 -3.20139 0.346148 1.38708 
2 -2.57168 0.994324 0.948543 
1 -3.3057 1.22907 1.39361 
1 -2.88005 1.64501 0.408361 
1 -3.27721 0.566456 0.536164 
1 -2.41055 0.65769 1.72852 
1 -2.42369 1.74962 1.78167 
1 -2.24063 0.831408 0.165247 
1 -1.90127 1.61121 0.8644 
1 -1.55428 0.585401 1.00743 
1 -1.48429 1.2533 1.81642 
2 -1.13645 1.25749 0.610136 
1 -2.44395 0.0190775 0.856294 
1 -0.5244 1.75538 0.215276 
1 -1.12054 0.517046 0.0535932 
1 -0.42287 0.896189 0.990241 
1 0.181881 1.67883 1.45942 
1 0.330533 0.227685 0.622393 
1 0.505285 1.28829 0.503767 
1 0.781054 0.821139 1.44551 
2 1.02055 0.0334219 1.73887 
1 1.34414 0.219295 0.80488 
2 1.36522 1.11125 0.6069 
1 1.89415 0.912069 1.31495 
1 1.90009 0.671092 0.0460876 
1 1.92611 0.681308 -3.35911 
2 1.94777 1.58187 -1.65445 
1 1.9414 -1.11878 1.07809 
1 1.9724 1.41585 -0.761779 
1 2.05202 -1.87887 -3.16894 
1 2.03738 -3.29277 -1.86289 
1 2.06984 -1.55916 -1.08515 
1 2.08293 -2.21224 -2.05056 
1 2.11694 -2.92293 -2.85313 
1 2.14386 1.59991 0.563678 
1 2.17619 -2.6054 -1.01792 
1 2.19884 -0.317057 -1.48702 
1 2.17587 -2.98883 1.05825 
1 2.17729 -2.02355 1.63637 
1 -3.72434 -2.07234 0.946383 
2 3.6654 -1.9811 -0.903504 
1 3.15738 -2.76372 -3.12908 
2 2.7985 -2.68289 -2.29822 
2 2.515 -3.13843 -0.0255181 
2 3.15262 -0.808306 -3.72968 
1 2.49493 -3.64514 -0.742731 
1 2.46877 -0.860175 -3.12879 
1 3.4899 -0.999291 -2.91417 
1 2.97569 -1.72239 -3.72198 
1 3.15108 -2.65764 -0.522231 
1 3.50486 -1.09166 -1.81878 
1 3.20074 -0.327439 -1.12612 
2 3.27301 -0.767956 -0.35118 
2 2.80554 -1.10559 -1.26224 
1 3.01128 -1.9816 -1.50222 
1 2.90684 -3.56758 -2.4492 
1 3.02219 -3.05124 -1.52626 
1 2.50682 -3.70332 -3.44386 
1 2.95441 -0.316827 -2.25704 
1 2.98029 -1.57932 -0.493954 
1 2.96955 -1.85366 -2.59548 
1 2.35789 -1.17793 -2.07318 
1 3.69888 -2.50996 -2.19797 
1 2.40128 -0.698112 -0.540775 
1 3.60896 -3.71555 -0.962762 
1 2.28225 -2.27312 -0.0137165 
2 3.39488 -1.18552 1.04093 
2 3.32178 -2.03622 0.151338 
1 3.30614 -3.61821 0.0203481 
1 3.22328 -3.63822 1.11513 
1 2.8565 -0.61373 1.47266 
1 2.75772 -1.73397 0.779217 
1 3.10419 -2.61906 1.63745 
1 2.87214 -0.719794 0.420889 
1 3.05258 -2.75335 0.551552 
2 2.33969 -1.33916 0.102696 
2 2.55581 0.0269056 -0.0529357 
2 2.32852 1.46167 -3.27734 
1 3.00906 0.928165 -3.48261 
1 2.96462 1.61987 -2.6884 
1 3.58362 0.52354 -2.20552 
1 3.46407 0.0481778 -0.104295 
1 2.80143 1.26039 -1.64247 
2 2.84167 0.347042 -1.66028 
1 3.56913 0.657246 -1.11769 
1 2.55172 0.489678 -0.818431 
1 3.03867 1.69319 -0.657369 
1 2.55562 0.642662 -2.49393 
2 2.44739 0.0204586 -3.11811 
1 3.76683 1.6641 -3.46361 
1 3.31732 -0.00699905 -3.20455 
1 3.415 0.321441 1.66012 
2 3.7282 1.31009 0.628823 
1 2.92682 0.910816 0.132358 
1 2.97076 1.12906 1.17518 
1 2.47726 0.171654 0.808136 
2 3.34147 0.383435 0.753759 
2 2.53954 0.363048 1.64995 
1 -2.91448 2.15418 -2.88955 
1 -2.6586 3.19274 -3.17471 
1 -2.49794 2.81099 -2.0931 
2 -3.24479 2.26546 -1.9897 
1 -3.04726 3.17324 -0.371344 
1 -3.50675 2.81965 -1.34604 
1 -2.55308 2.44679 -1.09516 
1 -3.49158 2.22908 -0.291605 
1 -1.98738 3.27434 -0.756555 
1 -3.49035 2.97646 -2.44884 
1 -2.15492 2.30888 -3.63741 
1 -2.2156 2.37876 -0.0892218 
1 -3.59967 2.72815 -3.50545 
1 -2.77876 3.63795 -1.35863 
2 -1.99307 3.42627 -1.64788 
2 -1.43049 3.05684 -0.133931 
1 -1.60434 3.22201 -3.60176 
1 -1.53482 2.91269 -2.59281 
1 -1.50699 2.71024 -1.55553 
1 -1.17694 2.38021 -0.609899 
1 -1.03619 2.21041 -3.23709 
1 -0.919028 3.41154 -0.828297 
1 -0.946845 1.95539 -2.17532 
2 -0.762657 2.23136 -1.3726 
1 -0.579468 3.19954 -3.1182 
1 -0.484112 2.92561 -1.9129 
2 -0.237482 2.37823 -3.60496 
1 -0.133563 2.68956 -0.951296 
1 -0.0366258 2.40095 -2.70883 
1 0.0613189 1.9463 -1.65418 
2 0.0139766 3.40504 -0.434768 
1 0.16116 3.6942 -1.25804 
1 0.491802 3.35127 -2.77797 
1 0.555883 2.0227 -3.54232 
1 0.660048 2.86587 -1.76108 
2 0.658575 2.30668 -1.09341 
1 0.711487 2.85645 -0.343313 
2 0.997428 3.36311 -1.04116 
1 -1.20485 3.69904 -1.90525 
1 1.22484 2.66813 -3.05533 
2 1.27121 3.16392 -2.31653 
1 1.27263 1.86678 -0.00585115 
1 1.49744 2.41663 -0.910393 
1 1.58991 2.33165 -2.01799 
1 1.68699 3.29828 -0.322898 
1 1.77192 3.22494 -1.51723 
1 -2.40471 2.57997 0.996967 
1 -3.50263 3.1287 1.65491 
1 -3.14918 3.41132 0.687503 
2 -2.97702 2.60373 0.32346 
1 -3.45233 2.26791 1.0021 
1 -2.33649 3.61744 1.40617 
1 -2.14895 3.39657 0.300431 
2 -1.69674 3.1393 1.00416 
1 -1.54449 2.57285 1.68414 
1 -1.35377 2.47827 0.531979 
1 -1.19254 3.63105 1.51457 
1 -1.07429 3.54813 0.469177 
1 -0.838565 1.87476 1.25074 
1 -0.482863 2.92677 1.09864 
1 -0.463288 2.81823 0.0243786 
1 0.277379 3.43647 0.441474 
1 0.351582 2.35066 0.588222 
1 0.595692 3.10615 1.39827 
2 1.13123 3.60875 0.294008 
1 1.20938 1.84599 1.10137 
1 1.36708 2.78461 0.560948 
1 1.50694 3.70392 1.09244 
1 1.58185 2.78875 1.64042 
1 2.10378 3.28942 -2.53471 
1 2.08914 1.84993 1.70261 
1 2.16666 2.25812 -2.89899 
1 2.82091 2.08781 -3.71263 
1 3.01587 2.86567 -2.88791 
2 2.30535 2.9759 -0.862196 
1 2.44473 2.25671 -1.33685 
1 2.28373 2.39697 -0.156773 
1 3.14924 2.86829 -0.593779 
1 3.30693 2.27682 -1.95838 
1 2.87613 3.23279 -1.61411 
2 2.48983 2.59908 -2.14819 
2 3.64162 2.21912 -2.78959 
1 3.69746 3.72494 -3.20915 
1 3.15389 1.92041 0.405246 
1 2.42359 3.48928 1.633 
2 3.13061 2.98849 1.3545 
1 3.36307 2.93081 0.497646 
1 2.39976 2.60741 0.941463 
1 2.42967 3.5605 0.443019 
1 3.12208 2.11563 1.55741 
1 -0.844737 0.399735 1.84989 
2 -0.035872 0.840605 1.85347 
1 -0.808415 -0.729413 1.94376 
1 -3.38087 -2.23357 1.93899 
2 -2.73536 -2.88451 2.13778 
1 -3.4469 -3.04368 2.63117 
1 -2.29599 -2.10007 2.12956 
1 -2.32489 -2.87451 2.97871 
1 -3.03097 -2.08017 2.91052 
1 -1.88357 -3.12406 2.0157 
1 -1.13465 -2.6124 2.64079 
2 -1.03178 -3.43514 2.26385 
2 -0.994713 -2.02781 3.4579 
1 -1.81246 -1.90032 3.07589 
1 0.501592 -3.31031 2.48108 
1 -0.260119 -2.52881 3.22121 
2 -0.279064 -2.86481 2.35794 
1 0.654849 -2.30458 2.45311 
1 -0.460641 -3.5636 2.97503 
2 0.802148 -2.29242 3.3276 
1 -3.10593 -3.58134 3.50137 
1 -2.84199 -1.13577 2.49225 
1 -2.50033 -0.616019 3.39547 
2 -3.08487 -0.325323 2.74832 
1 -3.49252 -1.24855 3.4027 
2 -2.5529 -1.47769 3.29645 
1 -1.17762 -0.138206 2.75431 
1 -1.29609 -1.74768 1.9487 
1 -1.46594 -0.751697 3.60347 
1 -1.79502 -0.983487 2.51293 
1 -0.847097 -1.32762 2.91524 
1 -0.299574 -1.95556 2.24659 
1 -0.457336 -0.339092 3.586 
1 0.221536 -1.58329 3.20235 
1 0.00508216 -0.681899 2.62475 
2 0.515844 -1.43148 2.37728 
1 0.566577 -3.1649 3.53032 
1 -1.55053 -3.61505 2.95124 
1 -1.40504 -2.81196 3.63522 
1 -2.26538 -0.0325571 2.56484 
1 0.899456 -0.746935 3.21743 
1 1.04246 -0.7495 2.17147 
1 1.33128 -1.61359 2.78253 
1 1.47752 -2.81109 2.94228 
1 -3.55256 -2.65458 3.60717 
2 1.5767 -2.2707 2.25109 
2 -1.01084 -3.69329 3.68692 
1 1.73389 -0.24504 2.82675 
2 1.78048 -2.058 3.42888 
2 1.79675 -3.3129 3.62827 
1 -2.93064 0.349797 3.35808 
1 -3.40672 1.23967 3.082 
1 -3.27025 0.453362 2.34677 
2 -3.03429 1.31812 2.26678 
1 -2.29445 1.00413 2.73711 
1 -1.84149 0.298811 3.536 
1 -1.59416 1.39522 3.72062 
2 -1.66257 0.46152 2.18068 
1 -1.2354 0.915246 2.80892 
1 -0.74029 0.700006 3.71911 
1 -0.670817 1.74331 3.34678 
1 -0.485114 1.50226 2.28857 
1 -0.263256 0.471135 2.73029 
1 0.224626 1.14487 3.41166 
1 0.515989 0.15043 3.67757 
1 0.590372 1.20498 2.42285 
1 0.708271 0.142008 2.60682 
2 0.905394 1.6538 3.1668 
1 1.28715 0.819594 3.26338 
2 1.31152 1.40097 1.85977 
1 1.53402 0.634157 2.24659 
1 1.62782 1.6668 2.64662 
2 3.8108 -1.47264 2.48342 
1 1.50458 3.74284 2.16761 
1 2.06506 -1.16591 3.39922 
1 2.12344 -1.092 2.20884 
1 2.17636 -2.95848 2.12769 
1 3.36115 -2.18698 2.78695 
1 3.68848 -0.587291 2.21755 
1 2.58022 -0.120893 3.4876 
1 3.64645 -0.252602 3.24012 
1 2.69675 -0.118704 2.39241 
1 3.12303 -3.49403 2.22275 
2 2.76284 -2.85379 2.76672 
1 2.26865 -3.63806 2.93932 
1 2.31843 -2.03876 2.71609 
1 2.40684 -2.67973 3.56694 
1 3.01741 -1.09902 2.87108 
1 3.15259 -1.56392 1.86821 
1 3.23782 -3.37845 3.30411 
1 3.1575 0.643638 2.95175 
2 3.2164 1.4826 3.24648 
1 3.49226 1.3053 2.19817 
2 3.71504 0.553217 3.60746 
2 2.2259 0.480532 2.88159 
1 2.32711 1.25039 3.28626 
1 2.49402 1.01501 2.21837 
1 2.03759 2.90339 3.73138 
1 -0.175343 3.73207 1.89289 
1 -3.38155 2.14909 2.07027 
1 -2.63086 1.97269 2.84296 
1 -2.52626 2.77759 2.07568 
1 -2.81264 2.89776 3.26063 
1 -3.55298 3.35716 2.71971 
2 -2.2255 3.56515 3.31437 
1 -2.55533 3.72647 2.49129 
2 -3.03843 2.12044 3.63345 
1 -1.83438 2.86838 2.88753 
2 -1.79332 3.39501 2.14126 
1 -1.52463 1.91761 2.62841 
2 -1.38727 2.27811 3.42061 
1 -0.941635 3.12803 2.37475 
1 -0.744952 2.87421 3.35601 
2 -0.711725 2.30216 2.65981 
1 -0.147174 2.54186 2.01004 
2 -0.138651 3.07472 2.75505 
1 0.171636 2.22108 2.95703 
1 0.296934 3.13436 3.58697 
1 0.678042 3.11826 2.48104 
1 0.880578 2.16209 2.10227 
1 1.19407 2.49278 3.19846 
1 1.33404 3.56538 3.22269 
1 2.04225 2.82604 2.62568 
2 2.07645 2.14561 3.24826 
2 2.41673 2.62292 1.84605 
1 3.70786 2.23983 3.04641 
1 2.72872 1.98781 2.63178 
1 3.10379 2.90872 2.26366 
1 3.02959 3.04901 3.32936 
