ITEM: TIMESTEP
3
ITEM: NUMBER OF ATOMS
500
ITEM: BOX BOUNDS xy xz yz pp pp pp
-3.7345 3.74197 0.007469
-3.7345 3.7345 0
-3.7345 3.7345 0
ITEM: ATOMS type xu yu zu 
1 -2.86562 -2.09593 -2.57477 
1 -3.05176 -3.10248 -2.90013 
1 -2.45803 -2.36426 -3.5712 
1 -2.16004 -3.36657 -3.46711 
1 -1.83934 -2.52902 -2.74063 
1 -0.914847 -2.70547 -2.18242 
2 -1.72987 -3.04738 -2.05574 
1 -0.777135 -2.35818 -3.16599 
1 0.274053 -2.24127 -3.35755 
1 -0.291258 -3.28677 -3.38721 
2 -0.17335 -2.73717 -2.66185 
1 0.61837 -3.06012 -2.7703 
1 -3.26038 -0.411534 -3.3106 
1 -3.09269 -1.01054 -2.41943 
1 -2.73559 -1.37578 -3.37147 
1 -2.36032 -0.504379 -1.87326 
1 -2.16202 -0.574678 -2.98294 
1 -2.07999 -1.4548 -2.38032 
1 -1.03876 -1.61842 -2.46189 
1 -1.6421 -1.68557 -3.39115 
2 -1.292 -0.936348 -3.02994 
1 -1.40802 -0.660658 -2.19776 
1 -0.034511 -1.89833 -2.3902 
1 0.329247 -0.829769 -3.35262 
2 0.568301 -1.51867 -2.90796 
1 -0.487708 -0.641902 -2.6952 
1 0.420309 -0.94658 -2.2288 
1 -0.601605 -1.36873 -3.47329 
1 -2.6406 -2.84316 -1.87987 
1 -3.44645 -2.78424 -1.17107 
1 -2.71415 -3.33249 -0.363019 
1 -2.49834 -2.36033 -0.866322 
1 -3.37174 -2.22983 -0.185166 
2 -3.55347 -3.09148 -0.355023 
1 -1.6215 -3.34975 -0.216518 
1 -1.73785 -2.23365 -1.70116 
1 -1.90385 -3.23931 -1.22142 
1 -1.42389 -2.41139 -0.700318 
1 -0.756433 -3.0714 -1.19631 
1 -0.663637 -1.99287 -1.43351 
1 0.149902 -2.75153 -1.79731 
1 0.100023 -2.58578 -0.731844 
1 -0.453192 -3.35166 -0.160952 
1 0.63625 -3.48068 -0.359981 
2 0.664911 -3.10317 -1.16302 
1 -3.21551 -1.84397 -1.58779 
1 -3.58519 -1.13307 -0.832644 
1 -3.38268 -0.201346 -1.62315 
2 -3.03863 -0.999246 -1.53605 
1 -2.67509 -0.532408 -0.886194 
1 -2.70485 -1.41942 -0.309671 
2 -3.50657 -0.246147 -0.740446 
1 -2.23936 -1.39203 -1.29134 
2 -1.44068 -1.3959 -1.72143 
1 -1.61812 -0.331512 -1.14581 
2 -1.96961 -0.931818 -0.487626 
1 -1.25384 -1.29828 -0.886012 
2 -0.833987 -0.519284 -0.793131 
1 -0.598277 -1.87556 -0.300942 
1 -0.546842 -0.926537 -1.64092 
1 0.368331 -1.68241 -1.37238 
1 -0.113338 -0.997583 -0.690014 
2 0.337402 -0.703899 -1.3897 
2 -3.6673 -1.68329 -2.36183 
1 -2.05707 -0.0868262 -0.171979 
2 -3.65846 -0.294725 -2.48724 
1 -1.25307 -3.43493 -2.91463 
1 -3.57178 -3.54348 -2.02234 
1 -2.22857 -3.66615 -2.41818 
1 -0.359374 -0.185119 -0.0961561 
1 0.500499 -1.70893 -0.25473 
1 -0.300139 -3.56204 -2.30701 
1 0.797955 -0.0662233 -2.75427 
1 0.937577 -3.56003 -1.89301 
1 -3.6582 -1.88755 -3.20588 
1 1.06092 -0.216965 -1.69524 
1 1.08321 -1.59818 -3.63563 
1 1.08313 -2.10763 -2.55575 
1 1.02377 -0.907818 -0.851156 
1 1.16218 -2.4801 -1.54957 
2 1.16765 -1.76819 -0.978031 
1 1.16798 -2.49662 -0.493487 
1 1.31691 -2.62555 -3.48129 
1 1.34555 -1.04894 -2.79203 
1 1.30069 -1.36387 -1.78426 
1 1.36756 -3.70214 -3.16082 
2 1.39165 -2.90418 -2.32716 
1 1.47326 -3.37622 -0.978869 
1 1.52894 -0.280101 -3.53782 
1 1.53999 -1.53559 -0.174087 
1 0.426344 -0.0146132 -0.793169 
1 -1.26886 -0.0064758 -3.07725 
1 -1.72488 -1.69442 -0.00461722 
1 1.84484 -0.178941 -2.46748 
1 -3.44257 -3.19915 1.62486 
1 -3.38579 -3.0144 0.524274 
1 -2.64173 -2.65069 1.25743 
2 -2.59858 -3.36796 0.599428 
1 -2.33055 -2.55008 0.211455 
1 -1.79415 -3.18539 0.894664 
1 -1.09207 -2.59924 0.362662 
1 -0.980417 -2.78325 1.5412 
1 -1.74408 -2.06822 1.03527 
1 -0.0445173 -2.46504 0.380957 
1 0.147931 -2.64077 1.57169 
1 -0.326491 -3.35992 0.9497 
2 0.544681 -3.48139 1.49833 
1 0.731927 -3.09755 0.695422 
1 0.511571 -1.67436 0.822672 
2 0.822658 -2.32122 0.286139 
1 -2.79023 -1.71104 0.717699 
2 -2.92107 -0.771742 0.923663 
1 -3.38892 -1.24319 1.50147 
1 -2.28046 -1.20894 1.53464 
1 -2.90126 -0.338955 1.73407 
1 -2.18059 -0.892164 0.482155 
2 -1.01084 -1.72162 0.47708 
1 -1.76272 -0.259661 1.61254 
1 -1.29605 -1.08873 1.02423 
2 -1.62156 -0.217231 0.649176 
1 -0.541564 -1.88026 1.19257 
1 -0.755107 -0.171204 0.915453 
1 -0.340068 -1.14027 0.431932 
1 0.113858 -1.14659 1.65388 
2 0.0629812 -0.57484 0.95614 
1 0.604358 -0.702362 0.133069 
1 -3.71325 -0.362575 0.955791 
1 0.0839782 -0.0495672 1.69137 
1 -3.72656 -2.10178 0.987081 
1 -3.10004 -0.438551 0.0743713 
1 -3.72933 -1.283 0.263487 
1 1.08494 -1.71747 1.72049 
1 0.919724 -0.660625 1.14684 
2 1.21651 -1.23154 0.558673 
1 1.20163 -2.82067 1.65222 
1 1.5175 -2.10572 0.763403 
1 -1.23587 -0.72662 0.00193721 
1 1.65115 -3.18238 0.124445 
1 1.68437 -0.522214 0.201419 
1 1.81081 -0.184143 1.64374 
1 -3.55219 1.4901 -2.35401 
1 -3.37575 0.731373 -3.12704 
2 -2.76013 1.06467 -2.48565 
1 -2.84135 0.148662 -2.48309 
1 -2.13311 0.71229 -3.01609 
1 -2.60142 1.74311 -1.90428 
1 -2.95424 0.430478 -0.613943 
1 -3.01039 0.810743 -1.63132 
1 -2.62942 1.4539 -0.702491 
2 -2.41726 0.203054 -1.34334 
1 -3.54127 1.72731 -1.28541 
1 -3.62061 1.18224 -0.261301 
1 -2.6957 1.35685 -3.64595 
1 -1.99564 0.828792 -1.96145 
1 -1.9658 1.76928 -2.74156 
2 -1.89895 0.0690541 -2.41559 
1 -1.81652 0.695993 -0.893232 
1 -1.71473 1.69078 -1.30787 
1 -1.56407 1.48915 -0.194837 
1 -1.17489 1.04492 -2.76703 
2 -1.15028 1.13851 -1.73392 
1 -1.06865 0.290166 -2.01199 
1 -0.733656 1.45662 -0.960062 
1 -0.732057 0.337652 -0.998667 
1 -0.329957 1.06224 -2.11242 
1 -0.267226 1.44125 -3.13237 
2 -2.54944 0.0702464 -3.40756 
1 -0.194073 0.845716 -0.193137 
1 -0.185849 0.363763 -2.91915 
1 0.174375 0.936421 -1.19801 
1 0.260356 1.79425 -0.494802 
1 0.733017 1.78831 -2.47063 
1 0.748557 0.772774 -2.09232 
1 0.822386 0.96843 -3.17304 
1 0.920559 0.908616 -0.416634 
2 0.98989 0.574437 -1.24684 
2 0.949525 0.100289 -0.0318847 
1 1.03999 1.53891 -1.39394 
2 1.42597 0.562124 -2.61084 
1 1.51236 0.0482209 -0.726438 
1 1.51099 1.71785 -3.62312 
1 -0.0089156 0.010222 -1.83776 
1 1.72898 1.37088 -2.51861 
1 1.77903 0.677088 -1.66901 
2 -3.24817 0.36836 1.38265 
2 -2.62992 1.02376 0.956125 
1 -3.38344 1.24667 1.38316 
1 -2.97448 1.67121 0.448212 
1 -3.33467 0.561053 0.529643 
1 -2.45803 0.663636 1.72177 
1 -2.48511 1.74436 1.74414 
1 -2.32433 0.860887 0.160033 
1 -1.94325 1.62761 0.833442 
1 -1.60325 0.604928 1.00074 
1 -1.534 1.26678 1.80963 
2 -1.18056 1.25508 0.575367 
1 -0.892025 0.403154 1.83715 
1 -2.49235 0.0420276 0.847515 
1 -0.588542 1.78247 0.179979 
1 -1.18509 0.489256 0.0442241 
1 -0.47563 0.893648 0.970194 
2 -0.0823267 0.836763 1.84281 
1 0.133168 1.6669 1.4511 
1 0.273766 0.214508 0.626923 
1 0.463381 1.27421 0.500214 
1 0.735506 0.811047 1.44561 
2 0.970962 0.0277855 1.75316 
1 1.29069 0.236961 0.775138 
2 1.32815 1.12514 0.592574 
1 1.83942 0.910898 1.30954 
1 1.8634 0.690085 0.0327022 
2 3.6567 -2.00173 -0.91671 
1 3.15128 -2.76351 -3.15547 
2 2.77589 -2.69353 -2.28718 
2 2.52953 -3.13897 -0.0360341 
2 3.1057 -0.773254 -3.71607 
1 2.50742 -3.66445 -0.742401 
1 2.41034 -0.842593 -3.12387 
1 3.4246 -0.992117 -2.89812 
1 2.00161 -1.86568 -3.14299 
1 2.895 -1.67381 -3.71048 
1 2.04409 -3.29708 -1.87098 
1 3.1558 -2.66735 -0.511149 
1 2.05011 -1.58745 -1.09416 
1 2.05555 -2.22062 -2.04444 
1 3.48582 -1.09265 -1.81659 
1 2.1106 -2.91576 -2.85954 
1 3.16106 -0.341125 -1.12275 
1 2.19281 -2.61972 -1.00538 
2 3.24511 -0.790599 -0.344411 
2 2.7894 -1.13238 -1.25742 
1 3.00322 -1.99694 -1.51306 
1 2.92089 -3.55732 -2.46052 
1 2.15254 -0.333317 -1.47696 
1 3.02536 -3.0684 -1.52011 
1 2.5145 -3.69295 -3.4454 
1 2.91209 -0.315282 -2.24119 
1 2.96887 -1.60811 -0.491356 
1 2.92993 -1.87402 -2.5962 
1 2.3348 -1.18643 -2.07254 
1 3.67646 -2.54005 -2.22384 
1 2.37032 -0.736005 -0.538779 
1 3.622 -3.73069 -0.958297 
1 2.27353 -2.28298 0.00574581 
2 3.33849 -1.1606 1.05286 
2 3.30378 -2.0616 0.173713 
1 3.31144 -3.59836 0.0150521 
1 3.24981 -3.69055 1.10134 
1 2.81114 -0.581883 1.47431 
1 2.74925 -1.75097 0.803088 
1 2.1361 -2.97324 1.0745 
1 3.07833 -2.58391 1.68272 
1 2.83431 -0.724055 0.424722 
1 2.13316 -2.00613 1.645 
1 3.03375 -2.77374 0.590089 
1 1.93148 -1.10743 1.06376 
2 2.33984 -1.37171 0.113924 
2 2.49293 0.0071524 -0.0677655 
2 2.28867 1.47592 -3.28996 
1 2.9614 0.933636 -3.48231 
1 2.91559 1.63118 -2.68886 
1 3.54417 0.521746 -2.20466 
1 3.40848 0.037553 -0.110742 
1 2.7614 1.25861 -1.64461 
2 2.79739 0.3474 -1.65845 
1 3.52727 0.651392 -1.12136 
1 2.51317 0.484351 -0.821626 
1 2.99059 1.68661 -0.657122 
1 2.51954 0.647451 -2.49594 
2 2.39521 0.0326603 -3.11778 
1 1.88485 0.696579 -3.36236 
2 1.90049 1.57681 -1.66457 
1 1.92895 1.40963 -0.777858 
1 3.71702 1.66625 -3.46754 
1 3.26774 0.000986761 -3.19289 
1 3.37798 0.339648 1.6657 
2 3.64191 1.2678 0.61845 
1 2.89056 0.907677 0.125517 
1 2.90243 1.10816 1.16533 
1 2.1029 1.60832 0.567853 
1 2.41407 0.167653 0.788603 
2 3.27907 0.369369 0.752694 
2 2.50157 0.367895 1.62698 
1 -2.96309 2.16059 -2.90126 
1 -2.68633 3.18738 -3.18245 
1 -2.54801 2.82354 -2.09253 
2 -3.28615 2.26934 -2.01753 
1 -3.0836 3.15664 -0.3938 
1 -3.519 2.83703 -1.38281 
1 -2.5857 2.43722 -1.09965 
1 -3.54826 2.22822 -0.298472 
1 -2.02804 3.26155 -0.754261 
1 -3.53141 2.98464 -2.47709 
1 -2.20782 2.30682 -3.65753 
1 -2.27507 2.33977 -0.0854236 
1 -3.65028 2.7305 -3.52238 
1 -2.81843 3.66805 -1.34412 
2 -2.04032 3.43075 -1.63835 
2 -1.44141 3.10776 -0.136303 
1 -1.63102 3.20126 -3.6071 
1 -1.56916 2.92228 -2.58758 
1 -1.56248 2.70707 -1.55636 
1 -1.24362 2.39301 -0.598329 
1 -1.08746 2.20232 -3.23036 
1 -0.954053 3.41288 -0.836004 
1 -1.01501 1.9344 -2.16419 
2 -0.822741 2.23833 -1.36795 
1 -0.618631 3.19473 -3.12792 
1 -0.541047 2.91882 -1.90831 
2 -0.288372 2.37423 -3.59386 
1 -0.183478 2.67753 -0.944578 
1 -0.0951513 2.38991 -2.70155 
1 0.0102707 1.94444 -1.65928 
2 -0.0198284 3.39683 -0.437155 
1 0.0813436 3.70036 -1.2597 
1 0.435747 3.34073 -2.78052 
1 0.506188 2.02143 -3.54475 
1 0.603717 2.87239 -1.76104 
2 0.616356 2.30276 -1.10273 
1 0.671849 2.84067 -0.353612 
2 0.925106 3.37823 -1.0436 
1 -1.24625 3.70771 -1.87776 
1 1.17551 2.67019 -3.06172 
2 1.21523 3.17229 -2.32162 
1 1.23494 1.8598 -0.00740399 
1 1.46023 2.40105 -0.913725 
1 1.54088 2.33246 -2.02477 
1 1.63732 3.29172 -0.335037 
1 1.69863 3.22549 -1.51588 
1 -2.4719 2.58142 0.996534 
1 -3.47368 3.20398 1.68987 
1 -3.2325 3.40622 0.652697 
2 -3.02776 2.60332 0.31104 
1 -3.53621 2.36435 1.00542 
1 -2.46164 3.63526 1.40234 
1 -2.20436 3.36715 0.296436 
2 -1.78639 3.162 1.03016 
1 -1.58723 2.54504 1.65703 
1 -1.41913 2.52009 0.533276 
1 -1.25459 3.62396 1.52878 
1 -1.11633 3.57066 0.505249 
1 -0.88356 1.86769 1.21603 
1 -0.525084 2.92202 1.1003 
1 -0.521947 2.84841 0.0269391 
1 0.266904 3.4142 0.445552 
1 0.299789 2.33588 0.572306 
1 0.55377 3.06898 1.40479 
2 1.10544 3.61021 0.293286 
1 1.15901 1.84583 1.09695 
1 1.32889 2.78229 0.559253 
1 1.42339 3.7 1.11296 
1 1.55123 2.77942 1.64261 
1 2.78099 2.10726 -3.72236 
1 2.11515 2.25944 -2.91075 
1 2.96581 2.86955 -2.89643 
2 2.24608 2.96173 -0.879222 
1 2.40168 2.2468 -1.35349 
1 2.25239 2.40518 -0.155688 
1 3.10206 2.82956 -0.672617 
1 3.27041 2.29173 -1.96533 
1 2.80176 3.23837 -1.63943 
2 2.44877 2.58305 -2.16458 
2 3.59274 2.22518 -2.80042 
1 2.0552 3.28164 -2.52918 
1 3.62901 3.72501 -3.2315 
1 3.114 1.91133 0.413435 
1 2.38443 3.48128 1.62277 
2 3.19412 2.9152 1.30782 
1 3.27545 2.92611 0.40502 
1 2.03981 1.84736 1.69854 
1 2.37644 2.60793 0.944434 
2 2.39553 2.61466 1.84368 
1 2.36639 3.56814 0.454412 
1 3.07174 2.07338 1.55342 
1 -0.836879 -0.743377 1.91878 
1 -3.39438 -2.14941 2.04141 
2 -2.7385 -2.9079 2.12197 
1 -3.42066 -3.00731 2.66328 
1 -2.31749 -2.11396 2.13956 
1 -2.34083 -2.89959 2.98622 
1 -2.91716 -1.97273 3.03565 
1 -1.88739 -3.13219 2.01272 
1 -1.07667 -2.66394 2.57606 
2 -0.975835 -3.46655 2.25295 
2 -0.985147 -2.01758 3.50218 
1 -1.7428 -2.00716 3.04586 
1 0.544307 -3.33083 2.41029 
1 -0.287175 -2.52036 3.24735 
2 -0.203982 -2.83518 2.39172 
1 0.603325 -2.32125 2.49892 
1 -0.426388 -3.56319 2.97103 
2 0.780414 -2.27699 3.35217 
1 -3.06604 -3.59385 3.51865 
1 -2.92279 -1.10882 2.46474 
1 -2.58949 -0.610911 3.38163 
2 -3.13999 -0.29955 2.73996 
1 -3.59196 -1.22251 3.40758 
2 -2.19925 -1.3815 3.40155 
1 -1.2253 -0.167731 2.72908 
1 -1.32322 -1.74172 1.97345 
1 -1.54634 -0.750117 3.60161 
1 -1.87435 -1.03547 2.5797 
1 -0.885906 -1.30637 2.95 
1 -0.320327 -1.91611 2.28013 
1 -0.522211 -0.358216 3.59058 
1 0.181615 -1.57567 3.23404 
1 -0.0380685 -0.684595 2.63468 
2 0.486754 -1.43882 2.41151 
1 0.55503 -3.14983 3.47264 
1 -1.53371 -3.63365 2.92175 
1 -1.3264 -2.85974 3.59725 
1 -2.30633 -0.0475646 2.54937 
1 0.864302 -0.751784 3.22051 
1 1.01363 -0.762551 2.1745 
1 1.29801 -1.62712 2.79123 
1 1.46893 -2.79752 2.95634 
1 -3.46378 -2.65816 3.64829 
2 1.55026 -2.2737 2.25805 
2 -0.97713 -3.71212 3.67509 
1 1.68779 -0.233786 2.8315 
2 1.75879 -2.04089 3.44321 
2 1.7933 -3.29613 3.64943 
1 -2.96728 0.368385 3.36806 
1 -3.4418 1.25613 3.08335 
1 -3.30757 0.47345 2.34896 
2 -3.08472 1.33728 2.25797 
1 -2.33575 0.997058 2.72905 
1 -1.87293 0.29245 3.5016 
1 -1.64533 1.38945 3.69876 
2 -1.71176 0.460993 2.16283 
1 -1.27568 0.897536 2.79372 
1 -0.788816 0.689054 3.71224 
1 -0.712588 1.73777 3.35309 
1 -0.529626 1.49061 2.28549 
1 -0.308106 0.452858 2.72397 
1 0.177043 1.1404 3.40513 
1 0.455297 0.144865 3.67171 
1 0.544141 1.19897 2.41887 
1 0.668271 0.133973 2.60593 
2 0.859143 1.65166 3.16408 
1 1.24196 0.815072 3.26253 
2 1.26279 1.39836 1.85416 
1 1.49061 0.637958 2.2466 
1 1.5808 1.66484 2.64235 
1 3.37517 -2.15515 2.89054 
1 1.99937 -1.1405 3.40678 
1 3.63296 -0.560622 2.21509 
1 2.53184 -0.0996514 3.48944 
1 3.60359 -0.221865 3.24559 
1 2.07697 -1.07339 2.206 
1 2.63968 -0.0897468 2.3877 
1 3.11749 -3.47967 2.23968 
1 2.16434 -2.94021 2.14308 
2 2.76762 -2.81086 2.76375 
1 2.27578 -3.60606 2.96126 
1 2.3126 -2.00953 2.72125 
2 3.72326 -1.41589 2.52307 
1 2.38882 -2.65426 3.56712 
1 2.9449 -1.04737 2.88172 
1 3.10363 -1.53058 1.89004 
1 3.24538 -3.3143 3.3173 
1 3.11145 0.659604 2.95281 
2 3.17628 1.49703 3.24086 
1 3.45282 1.32274 2.21409 
2 3.67638 0.586103 3.60419 
2 2.16943 0.499159 2.88337 
1 2.28764 1.26628 3.28212 
1 2.4546 1.01563 2.20727 
1 -3.4283 2.17697 2.05203 
1 -2.66925 1.96885 2.8208 
1 -2.54371 2.76583 2.06729 
1 -2.873 2.89098 3.23669 
1 -3.62822 3.3988 2.75617 
2 -2.26596 3.54728 3.31079 
1 -2.62968 3.71015 2.48781 
2 -3.0952 2.11404 3.60765 
1 -1.88729 2.852 2.89308 
2 -1.85779 3.38946 2.14591 
1 -1.55947 1.90828 2.63744 
2 -1.42488 2.28162 3.42551 
1 -1.00746 3.08844 2.3682 
1 -0.773696 2.86697 3.34643 
2 -0.746862 2.28472 2.66313 
1 -0.196642 2.5197 2.00594 
2 -0.191815 3.07898 2.72393 
1 -0.220614 3.65158 1.91371 
1 0.129525 2.2169 2.95426 
1 0.255948 3.13171 3.58045 
1 0.637525 3.10426 2.48904 
1 0.833409 2.15576 2.09304 
1 1.15808 2.49049 3.19403 
1 1.27654 3.57006 3.24262 
1 1.49197 3.71175 2.19277 
1 3.65604 2.25015 3.02849 
1 2.68164 1.99866 2.61851 
1 3.10702 2.90026 2.22034 
1 2.02463 2.84126 2.62774 
2 2.03067 2.15103 3.24332 
1 2.9708 3.07316 3.30487 
1 1.99136 2.90943 3.72956 
