ITEM: TIMESTEP
532
ITEM: NUMBER OF ATOMS
500
ITEM: BOX BOUNDS xy xz yz pp pp pp
-3.7345 3.79425 0.059752
-3.7345 3.7345 0
-3.7345 3.7345 0
ITEM: ATOMS type xu yu zu 
1 0.655588 -2.30222 2.44342 
1 -2.69889 -1.41494 -0.313407 
1 2.03088 -1.87089 -3.16242 
1 -0.336952 -0.201996 -0.0733313 
1 1.17517 -2.49017 -0.50744 
1 -1.5533 -3.62431 2.9491 
1 2.0908 3.29548 -2.53878 
1 -1.19814 -0.151997 2.74464 
1 2.18633 -0.323011 -1.48351 
1 -3.38436 -2.20827 1.97959 
1 1.19578 1.8468 1.0971 
1 -1.73628 -2.0489 1.01821 
1 -1.22637 0.00209168 -3.0725 
1 2.03043 2.90239 3.73484 
1 -2.12679 -0.542483 -2.99158 
1 0.958148 0.913682 -0.413839 
1 1.03009 -0.744159 2.17186 
1 -1.24296 0.906334 2.80274 
1 -3.36137 -2.23307 -0.185625 
1 -2.77749 -1.70931 0.717625 
1 -3.51649 1.4887 -2.34493 
1 -2.22123 -1.39038 -1.29607 
1 2.07584 1.85694 1.69701 
1 -2.41355 2.57974 0.995762 
1 -2.50143 -2.34782 -3.59315 
1 1.46758 -3.37874 -0.975041 
1 -1.76042 -1.94507 3.08858 
1 -0.705162 1.43316 -0.965565 
1 0.859785 0.972895 -3.16779 
1 -2.81201 0.153201 -2.48371 
1 3.05541 -2.75239 0.552316 
1 -2.62453 -2.64333 1.27702 
1 -1.18737 -0.798119 0.019488 
1 3.62695 -0.2199 3.24475 
1 3.29921 0.00123561 -3.19657 
1 -2.25361 0.828669 0.157848 
1 -2.90932 0.436395 -0.604645 
1 -1.82784 -1.01212 2.55265 
1 -2.28245 -0.04136 2.55391 
1 2.80979 2.09973 -3.71397 
1 3.01411 -1.98571 -1.51458 
1 -0.463347 -3.57478 2.97973 
1 -0.0028449 -1.89906 -2.39984 
1 0.502524 -3.30785 2.50618 
1 0.833471 -0.0651839 -2.75566 
1 3.11174 2.12399 1.55735 
1 2.39629 -0.711405 -0.541144 
1 -2.43653 1.75145 1.76588 
1 2.84621 -0.611483 1.47631 
1 0.644754 -0.693562 0.125772 
1 -1.13805 1.05058 -2.75534 
1 -1.51943 2.7063 -1.54918 
1 -3.06188 -0.995973 -2.41813 
1 -0.722933 -0.171237 0.929338 
1 2.44718 -0.84968 -3.13032 
1 -1.84451 2.85862 2.88236 
1 0.942152 -3.56841 -1.89629 
1 2.1759 -2.94816 2.13033 
1 0.869291 2.16313 2.09551 
1 -0.849808 -1.3238 2.91894 
1 -0.477148 2.8193 0.025006 
1 0.163482 2.21654 2.95295 
1 1.81155 0.683701 -1.65925 
1 -3.39082 2.14779 2.06971 
1 0.580931 -3.2048 3.5617 
1 -3.08828 -3.60027 3.50953 
1 -1.67816 1.69086 -1.30903 
1 -3.36833 -3.28825 1.62948 
1 -0.198187 -2.55479 3.19509 
1 -0.579524 -1.85223 -0.307877 
1 -3.49558 2.97767 -2.45786 
1 -0.680678 1.74235 3.34731 
1 1.15381 -1.67465 1.70548 
1 1.37265 -1.0586 -2.81111 
1 0.616686 -3.46214 -0.356722 
1 1.35673 -3.7066 -3.19045 
1 -1.55639 2.57032 1.68502 
1 2.50319 -3.69374 -3.44746 
1 1.57907 2.33219 -2.01514 
1 -3.06835 -3.07289 -2.90139 
1 -0.00320601 -0.679252 2.6247 
1 -1.28195 -3.45165 -2.91304 
1 1.91572 0.694258 -3.35843 
1 -1.05108 2.20803 -3.23641 
1 3.29719 2.2831 -1.9642 
1 -2.86912 -0.350458 1.74124 
1 -0.495737 1.49876 2.28706 
1 2.50037 -3.6453 -0.740338 
1 1.32876 0.227039 0.801539 
1 -3.22768 -0.406528 -3.31934 
1 -0.477281 -0.343537 3.5824 
1 -3.01743 -2.04507 2.96879 
1 2.17179 -2.01649 1.63639 
1 -1.08918 3.5483 0.472681 
1 0.697618 0.145955 2.60827 
1 -2.32839 -2.8761 2.98361 
1 2.67899 -0.100753 2.38943 
1 -0.537843 1.75726 0.215655 
1 -1.91044 -3.24168 -1.23116 
1 -2.09687 0.731372 -2.99978 
1 3.10283 -2.60883 1.64144 
1 0.519696 -1.71434 -0.22285 
1 -3.53557 -1.21456 3.39831 
1 1.27906 0.81884 3.26204 
1 -3.50134 2.22883 -0.291733 
1 2.95569 1.135 1.17354 
1 0.765717 0.82268 1.44471 
1 -0.0226637 -2.48968 0.330589 
1 0.208195 -1.58116 3.20456 
1 2.16033 2.26081 -2.89207 
1 2.99166 0.932149 -3.48401 
1 3.69419 -2.52273 -2.21673 
1 2.10673 -1.08358 2.2032 
1 0.789821 0.775738 -2.08888 
1 -1.52428 1.50104 -0.170257 
1 3.67197 -0.575733 2.22487 
1 -2.5691 1.73741 -1.89311 
1 0.289843 -2.24175 -3.37227 
1 -2.78585 3.64515 -1.35611 
1 1.56431 -0.282572 -3.54325 
1 -2.51909 -0.58903 3.4007 
1 2.95729 -1.85971 -2.60178 
1 2.28375 -2.27355 -0.0160386 
1 2.27674 -3.62652 2.93779 
1 1.54854 1.72397 -3.61421 
1 2.18434 -2.60762 -1.02039 
1 1.7634 1.37216 -2.51012 
1 -2.16291 3.39369 0.303412 
1 -1.13741 0.502367 0.0519793 
1 2.98478 -1.06972 2.87595 
1 2.71487 1.99428 2.62638 
1 -0.275112 -1.16205 0.454562 
1 -1.64177 -3.31637 -0.214657 
1 -0.151674 0.36156 -2.91872 
1 -0.951514 3.12244 2.37234 
1 -1.09532 -2.63726 2.64542 
1 0.100172 -2.56853 -0.758215 
1 -1.75745 0.699495 -0.876693 
1 1.93887 -1.11474 1.06773 
1 -0.852846 1.8712 1.25034 
1 -2.56371 3.72337 2.4974 
1 2.27421 2.40176 -0.156035 
1 0.455563 -0.012533 -0.779383 
1 -2.4698 -2.35325 -0.859627 
1 -2.25354 -3.67119 -2.41697 
1 -3.51176 3.13551 1.66072 
1 2.11045 -2.9195 -2.85362 
1 2.13226 1.60551 0.559257 
1 1.50143 3.70622 1.09144 
1 -2.89431 1.64437 0.407062 
1 1.62843 -3.17208 0.142966 
1 -3.46038 2.27687 1.00215 
1 2.56243 -0.101915 3.48822 
1 -0.816905 -0.739634 1.94249 
1 2.98493 -1.58905 -0.505446 
1 0.147741 3.69148 -1.25934 
1 -3.05548 -0.432081 0.0755001 
1 -1.86026 -2.54573 -2.76648 
1 -0.748149 2.86598 3.3499 
1 3.22683 -3.63324 1.11975 
1 2.9432 -0.314851 -2.24759 
1 -0.286779 1.06505 -2.11482 
1 -2.87331 -1.1202 2.49101 
1 -3.60407 2.72853 -3.50841 
1 2.35441 -1.1788 -2.07834 
1 3.68878 2.25362 3.04028 
1 1.46976 -2.8069 2.94243 
1 2.87089 3.23956 -1.61407 
1 3.23929 -3.34986 3.30874 
1 -2.56342 2.4456 -1.09583 
1 3.14166 2.86796 -0.59495 
1 -0.154045 2.54187 2.00705 
1 3.50757 -1.09202 -1.82309 
1 2.03184 2.83604 2.62922 
1 -0.511837 -0.920343 -1.63697 
1 -2.35562 3.62195 1.4124 
1 -2.19492 -3.3645 -3.46603 
1 1.25842 1.86946 -0.00893976 
1 -3.41646 1.2585 3.06572 
1 1.48839 2.41771 -0.912056 
1 0.168114 1.67953 1.45593 
1 -2.6515 -2.84678 -1.87791 
1 0.450809 -0.945761 -2.2352 
1 -3.05721 3.17148 -0.372874 
1 3.00664 2.87207 -2.89261 
1 1.1728 -2.48551 -1.56363 
1 -2.22168 2.37275 -0.090104 
1 -2.94239 0.370149 3.361 
1 2.54384 0.642516 -2.49111 
1 2.46867 0.174131 0.805887 
1 2.07377 -2.21148 -2.0512 
1 -3.35539 -0.204267 -1.6281 
1 1.33634 3.5572 3.21288 
1 0.0500191 1.94248 -1.65436 
1 -2.53806 2.7775 2.07261 
1 -0.301396 -1.95459 2.24781 
1 -1.20336 3.63121 1.51662 
1 -1.52562 1.91094 2.62934 
1 0.11248 -1.15766 1.62624 
1 -2.30044 0.996496 2.72943 
1 0.122395 -0.0471905 1.69024 
1 -0.483308 -3.33173 -0.19296 
1 -0.545515 -1.93057 1.14902 
1 -0.735317 -3.09245 -1.24001 
1 0.213144 0.935785 -1.19875 
1 -3.56314 -1.11701 -0.842993 
1 3.14071 -1.5583 1.88698 
1 -3.67782 -0.37157 0.951133 
1 -1.20857 3.69952 -1.88315 
1 0.93754 -0.672952 1.14485 
1 3.02494 3.06819 3.33718 
1 -2.58075 1.45942 -0.687765 
1 -0.966444 1.94671 -2.17415 
1 -3.5032 1.71985 -1.27653 
1 1.09413 -0.215774 -1.6962 
1 0.647002 2.86349 -1.76122 
1 2.86334 -0.7211 0.42255 
1 2.79187 1.26167 -1.64069 
1 -2.50422 2.81077 -2.09481 
1 -1.73043 -1.73287 -0.0425534 
1 -1.36588 2.48161 0.537798 
1 3.75243 1.66329 -3.47044 
1 -2.62819 1.96676 2.83011 
1 -2.14233 -0.9179 0.480537 
1 -2.35158 -2.5644 0.224813 
1 0.482951 3.34461 -2.78044 
1 1.21642 2.66314 -3.05628 
1 1.32351 -1.60872 2.77898 
1 0.497796 0.150882 3.67729 
1 -0.926044 -2.70218 -2.21131 
1 2.31431 1.2626 3.28602 
1 3.4776 1.30652 2.18394 
1 2.41329 3.49653 1.6415 
1 -0.0701821 -0.992188 -0.687841 
1 -0.458147 -0.650125 -2.70171 
1 -2.42777 0.658749 1.72405 
1 1.76688 3.22626 -1.51752 
1 -1.52877 2.91778 -2.58302 
1 0.356126 -0.830327 -3.35687 
1 2.03478 -1.15135 3.40417 
1 -0.401975 -3.32358 0.908266 
1 1.84951 -0.192852 1.65082 
1 0.700545 2.85636 -0.34836 
1 0.340088 2.35086 0.585612 
1 -2.68756 -1.35482 -3.36938 
1 3.14786 -2.76159 -3.14117 
1 3.36897 -2.17621 2.84277 
1 2.38651 2.61432 0.944917 
1 -3.28614 0.456106 2.34598 
1 1.67579 3.2998 -0.322892 
1 -3.31964 1.2332 1.38092 
1 -2.25482 -1.21095 1.53241 
1 -1.60792 1.3922 3.71086 
1 -1.92066 1.78804 -2.72186 
1 3.57252 0.524141 -2.20623 
1 1.96508 1.41761 -0.760032 
1 -0.321512 -3.28285 -3.38716 
1 2.93921 -1.69416 -3.7197 
1 -2.66235 1.34774 -3.66133 
1 -0.578743 3.19511 -3.12839 
1 0.315888 0.227109 0.619185 
1 -1.48745 -0.759866 3.60115 
1 1.10983 -2.11483 -2.57181 
1 -3.56767 3.37555 2.7245 
1 -3.34325 0.73129 -3.13065 
1 2.43703 2.25979 -1.33842 
1 -1.37253 -0.651221 -2.19366 
1 1.18355 2.49103 3.19809 
1 1.57065 2.79632 1.64517 
1 3.40114 0.324664 1.65477 
1 1.23838 -2.77634 1.61389 
1 0.211893 1.14345 3.40829 
1 -2.45469 0.0224896 0.852071 
1 3.15472 -2.66244 -0.523308 
1 -3.59142 1.18137 -0.262841 
1 -1.3683 -2.84012 3.63758 
1 -1.30514 -1.75436 1.96569 
1 -3.2882 0.565017 0.526377 
1 0.279541 1.7977 -0.492699 
1 -2.83393 -2.07762 -2.56074 
1 1.52041 0.63624 2.24119 
1 -1.62391 -1.68891 -3.36689 
1 -0.754246 0.697059 3.71762 
1 0.490848 1.28739 0.500643 
1 -0.0509176 2.39394 -2.70545 
1 -1.75874 -3.15427 0.901111 
1 -1.00508 -1.60933 -2.46504 
1 1.55232 -2.11481 0.751104 
1 3.55932 0.652837 -1.12146 
1 2.47602 1.0245 2.2153 
1 3.09315 2.91839 2.2686 
1 2.39553 -2.66815 3.56452 
1 3.19211 -0.333486 -1.12663 
1 3.02723 -3.05466 -1.52747 
1 1.33872 -2.62518 -3.49323 
1 -0.180586 3.73309 1.90198 
1 0.702877 -3.12992 0.731215 
1 -3.1635 3.41027 0.687818 
1 -2.63787 -0.524742 -0.885026 
1 -2.17263 2.30159 -3.64934 
1 -1.87762 -3.11909 2.02267 
1 -3.57925 -3.53396 -2.0323 
1 3.67866 3.72624 -3.21863 
1 2.95629 1.61808 -2.68776 
1 0.390795 -1.6804 -1.37454 
1 1.32353 -1.37249 -1.79918 
1 -0.434888 0.893446 0.992503 
1 0.292126 3.12899 3.58174 
1 -0.145502 0.83066 -0.196293 
1 2.75666 -1.73931 0.785808 
1 -3.5135 2.8252 -1.35386 
1 -0.930165 3.41217 -0.81764 
1 0.541789 2.02101 -3.54252 
1 -3.35493 -1.25535 1.52117 
1 0.771191 1.79117 -2.46385 
1 1.48796 3.75624 2.16376 
1 -1.98425 -0.116017 -0.170168 
1 3.14363 1.92458 0.406675 
1 2.42012 3.56474 0.444709 
1 -2.97621 0.802373 -1.62357 
1 0.2671 3.43309 0.436098 
1 0.534065 -1.75996 0.857084 
1 -0.586239 -1.35937 -3.5041 
1 -0.643124 -1.99636 -1.46071 
1 -1.60454 3.19818 -3.60083 
1 1.07753 1.54288 -1.38355 
1 3.02934 1.6977 -0.656466 
1 1.09781 -1.61061 -3.65537 
1 -2.8294 2.88624 3.24419 
1 1.61444 1.6683 2.64216 
1 0.578921 1.20785 2.42139 
1 -1.23617 -1.30438 -0.905696 
1 -0.492579 2.92785 1.0987 
1 -2.30669 -2.09302 2.16148 
1 1.89207 0.673279 0.0448843 
1 -1.02961 0.297389 -2.00054 
1 1.72051 -0.238605 2.82641 
1 -1.90992 1.60804 0.853229 
1 3.12898 -3.47875 2.22935 
1 0.890087 -0.74538 3.22003 
1 -1.18666 2.3753 -0.607214 
1 -0.235598 1.44596 -3.13215 
1 -3.37427 -3.01473 0.534948 
1 3.14006 0.662752 2.94762 
1 1.87403 -0.191613 -2.47405 
1 -2.72724 -3.32146 -0.39344 
1 1.04803 -0.911244 -0.863543 
1 -0.938328 -2.7892 1.62994 
1 -1.74567 -2.2349 -1.72644 
1 -2.05078 -1.42991 -2.39107 
1 2.90934 -3.56344 -2.45431 
1 -2.65537 3.18441 -3.17728 
1 3.44741 0.0452465 -0.107943 
1 -3.19686 -1.83874 -1.57953 
1 0.671986 3.11968 2.47637 
1 3.31203 -3.61686 0.0237594 
1 2.91963 0.914832 0.130778 
1 1.55368 -1.52612 -0.175104 
1 3.34669 2.93433 0.501469 
1 -1.56553 0.583766 1.00751 
1 -1.26221 -1.08343 1.05247 
1 -1.96137 0.826102 -1.94415 
1 -3.69991 -1.267 0.241688 
1 1.54243 0.0416592 -0.724326 
1 0.160817 -2.75724 -1.81367 
1 -0.499373 2.91839 -1.91378 
1 2.32094 -2.02278 2.7167 
1 -1.57639 -0.326835 -1.15332 
1 -0.675063 0.307386 -0.991052 
1 2.04205 -3.29117 -1.86389 
1 2.06917 -1.56574 -1.09416 
1 0.162754 -2.69413 1.56982 
1 3.61385 -3.71606 -0.958067 
1 -2.92611 2.15078 -2.89496 
1 -1.49988 1.25092 1.81474 
1 3.46339 -0.990775 -2.90758 
1 1.88007 0.91838 1.3094 
1 0.0294053 0.014235 -1.84381 
1 -1.73679 -0.263447 1.63071 
1 -3.42997 -3.02654 2.65446 
1 -0.858177 0.394979 1.84938 
1 -0.277141 0.460814 2.73181 
1 -1.37609 -2.41949 -0.742106 
1 -0.754163 -2.33789 -3.18504 
1 -3.72261 -2.07606 0.959652 
1 2.17911 -2.98156 1.06044 
1 1.71704 -0.52423 0.212 
1 0.585983 3.11557 1.39506 
1 -0.147464 2.6871 -0.951631 
1 2.54353 0.486295 -0.816242 
1 -3.51064 -2.67639 3.64469 
1 0.621383 -3.05993 -2.77597 
1 -1.08087 -2.5611 0.342368 
1 -0.312008 -3.56167 -2.30834 
1 -1.84619 0.298132 3.51876 
1 -2.32643 -0.492313 -1.87143 
1 -3.43612 -2.77738 -1.15869 
1 1.35494 2.78578 0.561572 
1 -3.61047 -1.88639 -3.21158 
1 -1.99878 3.27252 -0.751891 
2 2.47912 2.612 -2.14494 
2 3.70853 1.3019 0.617812 
2 1.29974 1.40277 1.85506 
2 -1.85872 0.0797426 -2.41056 
2 2.8045 -1.11241 -1.26928 
2 0.989027 3.36475 -1.04508 
2 1.35349 1.11745 0.596899 
2 0.0912678 -0.553075 0.949229 
2 1.20976 -1.26664 0.56927 
2 -1.67945 0.458407 2.17634 
2 -1.44117 3.05344 -0.130836 
2 2.53632 0.0176954 -0.0543169 
2 -2.98283 2.60382 0.320762 
2 -1.02619 -3.44469 2.26444 
2 -1.39747 2.27874 3.4209 
2 -3.25405 2.26711 -1.99519 
2 -3.47133 -0.232293 -0.74316 
2 -3.21799 0.351684 1.37844 
2 3.20593 1.49537 3.24761 
2 -1.73854 -3.05328 -2.07187 
2 -0.71665 2.29764 2.6558 
2 3.31817 -2.03357 0.155349 
2 -2.58216 0.992958 0.942123 
2 -3.0394 1.31347 2.25176 
2 3.33104 0.387341 0.750261 
2 1.38978 -2.91745 -2.33265 
2 1.26089 3.15873 -2.31551 
2 3.63033 2.21962 -2.79521 
2 1.19645 -1.76853 -0.992823 
2 -1.2689 -0.932961 -3.0228 
2 2.51855 -3.13734 -0.0248473 
2 -1.80451 3.39263 2.14093 
2 1.12083 3.60892 0.295335 
2 1.02314 0.569928 -1.24143 
2 2.76355 -2.83397 2.7658 
2 0.895957 1.65138 3.16906 
2 3.3818 -1.18186 1.04307 
2 3.13845 -0.784461 -3.72534 
2 -0.171082 -2.73581 -2.66875 
2 -1.14562 1.24917 0.602651 
2 0.596013 -1.5223 -2.91879 
2 2.79097 -2.68458 -2.29748 
2 -1.58112 -0.247941 0.65813 
2 0.365687 -0.695933 -1.39564 
2 -1.01526 -1.66496 0.445204 
2 -0.774982 2.22634 -1.37313 
2 -2.88632 -0.788963 0.927957 
2 -1.71248 3.14317 1.01026 
2 2.29682 2.9771 -0.86075 
2 -0.93352 -2.05945 3.44303 
2 -1.00954 -3.70645 3.68947 
2 2.42741 0.0278429 -3.11741 
2 2.31957 1.47244 -3.27877 
2 0.647734 2.30474 -1.09293 
2 0.000415949 3.40465 -0.436413 
2 -1.11715 1.15528 -1.76171 
2 1.79219 -3.30711 3.62354 
2 -3.05735 2.11232 3.61382 
2 -0.268961 -2.87495 2.33978 
2 -2.449 -1.43372 3.23172 
2 3.67013 -1.98991 -0.916014 
2 -2.23126 3.53897 3.32164 
2 -0.251088 2.3759 -3.59833 
2 0.666323 -3.10106 -1.16988 
2 -2.54285 0.112257 -3.38797 
2 1.93782 1.58288 -1.65131 
2 -0.812358 -0.538828 -0.766831 
2 3.70645 0.592374 3.59906 
2 1.46727 0.559949 -2.6029 
2 -2.73222 1.06187 -2.47288 
2 -2.73007 -2.88618 2.1435 
2 3.78069 -1.45352 2.50975 
2 0.854029 -2.37462 0.290592 
2 -3.63353 -1.67226 -2.36961 
2 2.20211 0.494448 2.88109 
2 -2.00087 3.42509 -1.64083 
2 -0.0484957 0.837855 1.85488 
2 -3.10481 -0.312523 2.76051 
2 1.00088 0.111508 -0.0168239 
2 0.666362 -3.48274 1.61449 
2 3.11938 2.99569 1.35948 
2 -1.42915 -1.4009 -1.73601 
2 -2.36179 0.212087 -1.3302 
2 -1.94217 -0.952136 -0.487673 
2 -3.00352 -0.995519 -1.53568 
2 -0.144996 3.07252 2.74859 
2 0.508541 -1.42922 2.38122 
2 2.06209 2.14881 3.24571 
2 2.40663 2.62729 1.85138 
2 2.35696 -1.3549 0.0966078 
2 -2.58527 -3.35357 0.664703 
2 0.772228 -2.31509 3.32761 
2 1.76929 -2.05036 3.42597 
2 3.26913 -0.776433 -0.350146 
2 -3.62862 -0.287732 -2.4957 
2 2.52539 0.374531 1.64524 
2 1.57609 -2.26523 2.25211 
2 2.83013 0.34855 -1.65703 
2 1.00936 0.0363199 1.73781 
2 -3.56685 -3.09002 -0.341502 
