ITEM: TIMESTEP
438
ITEM: NUMBER OF ATOMS
500
ITEM: BOX BOUNDS xy xz yz pp pp pp
-3.7345 3.78678 0.052283
-3.7345 3.7345 0
-3.7345 3.7345 0
ITEM: ATOMS type xu yu zu 
1 -2.84504 -2.08223 -2.57409 
1 -3.05976 -3.08809 -2.89496 
1 -2.48976 -2.35431 -3.58738 
1 -2.18665 -3.36825 -3.46596 
1 -1.85834 -2.54575 -2.75632 
1 -0.921364 -2.70161 -2.20609 
2 -1.73311 -3.0519 -2.06351 
1 -0.76467 -2.33195 -3.17951 
1 0.280545 -2.24702 -3.37209 
1 -0.327748 -3.27395 -3.39125 
2 -0.172335 -2.734 -2.67306 
1 0.620604 -3.06104 -2.77421 
1 -3.23623 -0.406565 -3.32061 
1 -3.06753 -0.999649 -2.4244 
1 -2.70128 -1.36093 -3.38542 
1 -2.3345 -0.494613 -1.87162 
1 -2.13314 -0.558655 -2.99043 
1 -2.06324 -1.43781 -2.37676 
1 -1.01384 -1.60701 -2.45718 
1 -1.63835 -1.67932 -3.35244 
2 -1.26845 -0.928107 -3.02574 
1 -1.3825 -0.65076 -2.19769 
1 -0.0118395 -1.89878 -2.3998 
1 0.34726 -0.830429 -3.35769 
2 0.585866 -1.52372 -2.92128 
1 -0.464304 -0.647653 -2.69909 
1 0.443316 -0.94665 -2.2349 
1 -0.596574 -1.35736 -3.50476 
1 -2.64402 -2.83956 -1.87879 
1 -3.43238 -2.77919 -1.15981 
1 -2.72614 -3.32361 -0.390571 
1 -2.4701 -2.35324 -0.854592 
1 -3.36578 -2.23261 -0.184107 
2 -3.5647 -3.08993 -0.340498 
1 -1.64254 -3.31712 -0.209633 
1 -1.7364 -2.23246 -1.7159 
1 -1.90945 -3.2409 -1.22605 
1 -1.37593 -2.42095 -0.731793 
1 -0.732684 -3.08867 -1.23326 
1 -0.641771 -1.99456 -1.45449 
1 0.160685 -2.75606 -1.81405 
1 0.108108 -2.56728 -0.756233 
1 -0.480401 -3.33118 -0.189753 
1 0.619162 -3.46218 -0.357987 
2 0.666563 -3.10337 -1.1721 
1 -3.19853 -1.84099 -1.5872 
1 -3.56621 -1.11979 -0.844638 
1 -3.36056 -0.204677 -1.62825 
2 -3.00934 -0.996932 -1.5394 
1 -2.6449 -0.525991 -0.885268 
1 -2.70384 -1.41385 -0.309398 
2 -3.47794 -0.234235 -0.742895 
1 -2.22671 -1.39116 -1.29024 
2 -1.43571 -1.39095 -1.72887 
1 -1.5815 -0.335681 -1.15354 
2 -1.94725 -0.953301 -0.486634 
1 -1.24067 -1.31135 -0.898065 
2 -0.816139 -0.544059 -0.767552 
1 -0.57587 -1.85512 -0.30581 
1 -0.524857 -0.91369 -1.63152 
1 0.389571 -1.67852 -1.37623 
1 -0.0719655 -0.993939 -0.687512 
2 0.359603 -0.694507 -1.39603 
2 -3.64188 -1.67498 -2.37396 
1 -1.99097 -0.116948 -0.171845 
2 -3.63471 -0.289211 -2.49475 
1 -1.27863 -3.45265 -2.9078 
1 -3.57976 -3.53657 -2.02837 
1 -2.24651 -3.67054 -2.41269 
1 -0.340885 -0.202415 -0.0756038 
1 0.524816 -1.71177 -0.223526 
1 -0.310002 -3.56113 -2.31205 
1 0.824934 -0.0647964 -2.75546 
1 0.944348 -3.56814 -1.89668 
1 -3.62582 -1.88171 -3.21922 
1 1.0874 -0.214157 -1.69701 
1 1.08788 -1.6141 -3.6571 
1 1.10016 -2.11245 -2.56891 
1 1.04419 -0.908766 -0.864256 
1 1.17057 -2.48226 -1.5595 
2 1.19316 -1.76523 -0.991524 
1 1.1849 -2.48604 -0.50332 
1 1.33381 -2.62451 -3.49197 
1 1.36183 -1.05624 -2.81525 
1 1.3203 -1.36687 -1.80065 
1 1.35874 -3.70726 -3.18785 
2 1.38972 -2.9113 -2.32922 
1 1.46913 -3.37645 -0.975326 
1 1.55635 -0.276926 -3.54335 
1 1.5597 -1.51895 -0.177864 
1 0.451054 -0.0114611 -0.780236 
1 -1.23681 -9.91217e-06 -3.07534 
1 -1.73625 -1.7331 -0.0356609 
1 1.86695 -0.191384 -2.4731 
1 -3.36799 -3.28695 1.63822 
1 -3.37344 -3.01461 0.538349 
1 -2.62475 -2.6412 1.28397 
2 -2.58541 -3.356 0.665934 
1 -2.35536 -2.56602 0.22964 
1 -1.76005 -3.15508 0.903457 
1 -1.07977 -2.56124 0.347863 
1 -0.935721 -2.78919 1.62824 
1 -1.73765 -2.05125 1.02262 
1 -0.0215824 -2.48911 0.334275 
1 0.165375 -2.68775 1.563 
1 -0.398236 -3.32661 0.909971 
2 0.664315 -3.47832 1.61849 
1 0.705813 -3.12991 0.72948 
1 0.533571 -1.75473 0.855407 
2 0.853126 -2.37266 0.290947 
1 -2.77974 -1.7099 0.720314 
2 -2.89345 -0.788729 0.92698 
1 -3.36164 -1.25371 1.52146 
1 -2.26013 -1.21317 1.53582 
1 -2.87507 -0.350195 1.73973 
1 -2.14772 -0.915702 0.483271 
2 -1.01587 -1.6642 0.443897 
1 -1.74169 -0.26513 1.62863 
1 -1.26713 -1.08499 1.05193 
2 -1.58565 -0.245861 0.656164 
1 -0.546964 -1.92697 1.14937 
1 -0.726846 -0.172156 0.927627 
1 -0.277639 -1.15935 0.453337 
1 0.110567 -1.15726 1.62724 
2 0.0889578 -0.552186 0.950131 
1 0.642818 -0.689556 0.125027 
1 -3.68371 -0.370232 0.950687 
1 0.118022 -0.0468182 1.69006 
1 -3.06183 -0.430942 0.0752182 
1 -3.70412 -1.26741 0.243295 
1 1.15211 -1.67297 1.70476 
1 0.93518 -0.675355 1.14443 
2 1.20878 -1.26288 0.56382 
1 1.23991 -2.77437 1.61235 
1 1.55218 -2.11094 0.748292 
1 -1.19279 -0.79626 0.0208049 
1 1.63171 -3.17417 0.14288 
1 1.71586 -0.516447 0.210663 
1 1.84533 -0.191588 1.65027 
1 -3.52273 1.48884 -2.34408 
1 -3.35193 0.73254 -3.12811 
2 -2.73829 1.0606 -2.47563 
1 -2.81729 0.149587 -2.48739 
1 -2.10607 0.72786 -3.00645 
1 -2.57384 1.73683 -1.89537 
1 -2.91616 0.435502 -0.606894 
1 -2.98232 0.801893 -1.62626 
1 -2.5849 1.45721 -0.689473 
2 -2.3704 0.210278 -1.33223 
1 -3.5072 1.72089 -1.27598 
1 -3.59701 1.18091 -0.264228 
1 -2.67063 1.34922 -3.66009 
1 -1.96837 0.8238 -1.94973 
1 -1.92761 1.78468 -2.72619 
2 -1.87037 0.0763113 -2.41675 
1 -1.76109 0.694823 -0.881948 
1 -1.68392 1.68903 -1.31063 
1 -1.52829 1.49697 -0.173759 
1 -1.1466 1.04761 -2.7567 
2 -1.125 1.15362 -1.76499 
1 -1.03609 0.295567 -2.0016 
1 -0.711421 1.4305 -0.969103 
1 -0.679954 0.302491 -0.992649 
1 -0.293858 1.06524 -2.11627 
1 -0.24434 1.44606 -3.13394 
2 -2.53764 0.0959126 -3.39477 
1 -0.152687 0.831215 -0.197857 
1 -0.15932 0.362517 -2.92085 
1 0.207168 0.935389 -1.20042 
1 0.273327 1.7975 -0.494158 
1 0.76577 1.79291 -2.46499 
1 0.784746 0.777297 -2.09 
1 0.853243 0.973088 -3.16871 
1 0.952426 0.91529 -0.415158 
2 1.01789 0.571863 -1.24265 
2 0.999369 0.115391 -0.0164091 
1 1.07215 1.54317 -1.38414 
2 1.46069 0.559654 -2.60485 
1 1.53726 0.0438193 -0.726171 
1 1.54285 1.72429 -3.61457 
1 0.0239402 0.015013 -1.84591 
1 1.75742 1.37217 -2.5094 
1 1.80747 0.682039 -1.65922 
2 -3.2228 0.352044 1.37702 
2 -2.58607 0.991494 0.940794 
1 -3.32283 1.23348 1.37974 
1 -2.89881 1.64324 0.406365 
1 -3.29431 0.565727 0.525083 
1 -2.43318 0.658822 1.7238 
1 -2.43871 1.75188 1.76479 
1 -2.25947 0.827524 0.155651 
1 -1.9141 1.60712 0.850772 
1 -1.57072 0.583406 1.00635 
1 -1.50394 1.24952 1.81284 
2 -1.15038 1.24776 0.600109 
1 -2.461 0.0240345 0.851427 
1 -0.543793 1.75858 0.214386 
1 -1.14318 0.498687 0.0510795 
1 -0.440535 0.893705 0.991773 
1 0.163002 1.67981 1.45509 
1 0.310061 0.228505 0.617878 
1 0.484343 1.28841 0.499312 
1 0.759889 0.823857 1.44419 
2 1.00484 0.0368279 1.73577 
1 1.32206 0.227122 0.804217 
2 1.34636 1.11661 0.597158 
1 1.87558 0.919402 1.3084 
1 1.88511 0.672012 0.0459551 
1 1.91009 0.698129 -3.35849 
2 1.93251 1.58222 -1.6511 
1 1.93767 -1.11257 1.06398 
1 1.95956 1.41593 -0.759934 
1 2.02073 -1.86769 -3.15959 
1 2.04326 -3.29098 -1.8658 
1 2.06664 -1.57002 -1.09996 
1 2.06793 -2.21202 -2.05272 
1 -3.72408 -2.07681 0.96249 
2 3.67069 -1.99371 -0.920653 
1 3.14378 -2.76227 -3.1453 
2 2.78623 -2.68617 -2.29572 
2 2.52055 -3.13847 -0.0264825 
2 3.13068 -0.778343 -3.72467 
1 2.50258 -3.64672 -0.741279 
1 2.43821 -0.845681 -3.1311 
1 3.45293 -0.989166 -2.90628 
1 2.92374 -1.68622 -3.72035 
1 3.15611 -2.66528 -0.524138 
1 3.50515 -1.09255 -1.82492 
1 2.10783 -2.91816 -2.85493 
1 3.18652 -0.335842 -1.12668 
1 2.18868 -2.60919 -1.02238 
2 3.26559 -0.779952 -0.349643 
2 2.8005 -1.11473 -1.27376 
1 3.01341 -1.98862 -1.52 
1 2.91055 -3.56239 -2.45603 
1 2.17897 -0.328002 -1.48243 
1 3.02949 -3.05759 -1.52761 
1 2.50222 -3.69109 -3.44793 
1 2.93671 -0.314704 -2.24483 
1 2.98477 -1.59335 -0.512278 
1 2.95034 -1.86326 -2.60444 
1 2.35001 -1.18018 -2.08285 
1 3.6904 -2.52751 -2.22272 
1 2.3923 -0.718223 -0.541386 
1 3.61699 -3.71689 -0.956329 
1 2.28407 -2.27509 -0.0173845 
2 3.37599 -1.18066 1.04385 
2 3.31268 -2.03203 0.155453 
1 3.31407 -3.61754 0.02462 
1 3.23068 -3.63174 1.12148 
1 2.84202 -0.610259 1.47775 
1 2.75423 -1.74259 0.789335 
1 2.17924 -2.97798 1.06109 
1 3.10069 -2.60589 1.6418 
1 2.85882 -0.721965 0.42355 
1 2.16782 -2.01459 1.63737 
1 3.05596 -2.75349 0.551688 
2 2.36489 -1.36249 0.0945564 
2 2.52616 0.0128769 -0.0546041 
2 2.31527 1.47535 -3.28073 
1 2.98498 0.93271 -3.48401 
1 2.95067 1.61929 -2.68787 
1 3.56653 0.523375 -2.20525 
1 3.43931 0.0441247 -0.108498 
1 2.78702 1.26147 -1.64027 
2 2.82233 0.348258 -1.65599 
1 3.55353 0.651432 -1.12193 
1 2.53827 0.483955 -0.815038 
1 3.02378 1.69797 -0.656231 
1 2.53834 0.643073 -2.49077 
2 2.41891 0.0308263 -3.11775 
1 3.7459 1.66371 -3.47194 
1 3.2913 0.00257872 -3.19427 
1 3.39699 0.326306 1.65434 
2 3.70564 1.30489 0.61662 
1 2.91352 0.914807 0.130425 
1 2.9512 1.13672 1.1732 
1 2.12568 1.60565 0.557538 
1 2.46393 0.173898 0.805458 
2 3.32574 0.388927 0.75003 
2 2.52123 0.377484 1.64385 
1 -2.93169 2.15001 -2.89519 
1 -2.65628 3.18282 -3.17677 
1 -2.50706 2.81098 -2.09486 
2 -3.25775 2.26768 -1.99632 
1 -3.06127 3.16886 -0.374302 
1 -3.5158 2.827 -1.35589 
1 -2.56763 2.44374 -1.09637 
1 -3.50811 2.22815 -0.288746 
1 -2.00422 3.2714 -0.750135 
1 -3.49837 2.97835 -2.45994 
1 -2.18043 2.30099 -3.65203 
1 -2.22519 2.36949 -0.0902498 
1 -3.60668 2.72873 -3.50914 
1 -2.78901 3.64826 -1.35615 
2 -2.0039 3.4249 -1.63748 
2 -1.44577 3.05233 -0.130064 
1 -1.60767 3.19337 -3.59932 
1 -1.52778 2.92036 -2.57987 
1 -1.52397 2.70579 -1.54725 
1 -1.19099 2.37369 -0.606655 
1 -1.05802 2.20876 -3.23759 
1 -0.935352 3.41295 -0.814596 
1 -0.973743 1.94578 -2.17553 
2 -0.780641 2.22492 -1.37414 
1 -0.580679 3.19728 -3.13235 
1 -0.504514 2.91816 -1.91468 
2 -0.257014 2.37257 -3.59921 
1 -0.153843 2.68673 -0.95169 
1 -0.0583432 2.39322 -2.70684 
1 0.0444805 1.94263 -1.65521 
2 -0.00529743 3.40538 -0.437367 
1 0.139476 3.69108 -1.26149 
1 0.477876 3.34281 -2.78 
1 0.53605 2.01966 -3.54279 
1 0.64225 2.86389 -1.7611 
2 0.642452 2.30509 -1.09333 
1 0.69525 2.85678 -0.349892 
2 0.981847 3.36746 -1.04592 
1 -1.21072 3.70127 -1.87612 
1 1.21163 2.66357 -3.05842 
2 1.25568 3.15901 -2.31654 
1 1.25217 1.8706 -0.00962681 
1 1.48386 2.41695 -0.912371 
1 1.57465 2.33292 -2.01544 
1 1.67088 3.3002 -0.324442 
1 1.76058 3.22734 -1.51648 
1 -2.4192 2.5783 0.997307 
1 -3.51656 3.13442 1.66062 
1 -3.17004 3.40938 0.686777 
2 -2.98525 2.60345 0.320379 
1 -3.46604 2.27599 1.00003 
1 -2.3635 3.62229 1.4148 
1 -2.16942 3.39063 0.304853 
2 -1.71986 3.14359 1.01296 
1 -1.56162 2.56894 1.6854 
1 -1.37158 2.483 0.53992 
1 -1.2097 3.6317 1.51806 
1 -1.09605 3.54831 0.474802 
1 -0.857422 1.87158 1.24946 
1 -0.497318 2.92996 1.09961 
1 -0.483418 2.82102 0.0255446 
1 0.262999 3.43278 0.435052 
1 0.334353 2.35187 0.585569 
1 0.581089 3.11906 1.39539 
2 1.11613 3.60875 0.294183 
1 1.19039 1.84733 1.09599 
1 1.34989 2.78664 0.56099 
1 1.49594 3.70735 1.09137 
1 1.56541 2.79807 1.64522 
1 2.08647 3.29355 -2.53796 
1 2.07026 1.85877 1.69618 
1 2.8054 2.10336 -3.71537 
1 2.15488 2.26087 -2.893 
1 3.00259 2.87215 -2.89346 
2 2.29176 2.97595 -0.861618 
1 2.43241 2.25914 -1.33924 
1 2.26919 2.40302 -0.155684 
1 3.13728 2.8666 -0.596969 
1 3.29376 2.2839 -1.96429 
1 2.86555 3.23955 -1.61572 
2 2.47601 2.60958 -2.14639 
2 3.62586 2.21968 -2.7958 
1 3.6703 3.72637 -3.22176 
1 3.1369 1.92443 0.407093 
1 2.40765 3.4995 1.64265 
2 3.11306 2.99823 1.36048 
1 3.33941 2.93427 0.502528 
1 2.38064 2.61472 0.945688 
1 2.41488 3.56561 0.446911 
1 3.10719 2.127 1.55869 
1 -0.863126 0.39382 1.84781 
2 -0.0537183 0.837452 1.85406 
1 -0.819166 -0.739387 1.9393 
1 -3.38509 -2.20157 1.99082 
2 -2.72694 -2.8847 2.14817 
1 -3.42394 -3.0208 2.66329 
1 -2.30687 -2.08923 2.17567 
1 -2.3251 -2.87397 2.98561 
1 -3.01381 -2.03613 2.98706 
1 -1.87473 -3.11582 2.02412 
1 -1.08451 -2.63959 2.64585 
2 -1.02362 -3.44552 2.26464 
2 -0.905353 -2.07384 3.42935 
1 -1.74386 -1.95145 3.10137 
1 0.5034 -3.30803 2.51385 
1 -0.175086 -2.56737 3.18059 
2 -0.264532 -2.87751 2.32912 
1 0.656011 -2.30272 2.43933 
1 -0.463333 -3.58094 2.98017 
2 0.761709 -2.32384 3.32696 
1 -3.08221 -3.60577 3.51214 
1 -2.88205 -1.11825 2.49191 
1 -2.52621 -0.58647 3.40094 
2 -3.11153 -0.310798 2.76425 
1 -3.55216 -1.20763 3.39563 
2 -2.42477 -1.4249 3.21669 
1 -1.20467 -0.155667 2.74052 
1 -1.30566 -1.75561 1.96809 
1 -1.49528 -0.76208 3.59791 
1 -1.83579 -1.02026 2.55781 
1 -0.85142 -1.32172 2.91671 
1 -0.300999 -1.95433 2.24732 
1 -0.485251 -0.343135 3.58066 
1 0.199669 -1.58241 3.20564 
1 -0.00709312 -0.679142 2.62455 
2 0.504477 -1.42967 2.38336 
1 0.583754 -3.22008 3.57223 
1 -1.55354 -3.62717 2.94644 
1 -1.35522 -2.85052 3.63576 
1 -2.2877 -0.0448354 2.55198 
1 0.884971 -0.746388 3.22071 
1 1.02456 -0.743151 2.17188 
1 1.31992 -1.60754 2.77804 
1 1.4663 -2.80686 2.94375 
1 -3.49755 -2.68331 3.65844 
2 1.57478 -2.26427 2.25378 
2 -1.0083 -3.71127 3.68839 
1 1.71447 -0.236869 2.82594 
2 1.76429 -2.04791 3.42599 
2 1.78984 -3.30554 3.62464 
1 -2.94658 0.373485 3.36482 
1 -3.42076 1.26219 3.06296 
1 -3.29086 0.456071 2.34769 
2 -3.04164 1.31223 2.24974 
1 -2.30456 0.993585 2.72917 
1 -1.84827 0.296794 3.51329 
1 -1.61608 1.39142 3.70664 
2 -1.68497 0.456507 2.17426 
1 -1.24721 0.903957 2.79991 
1 -0.762306 0.696442 3.71649 
1 -0.686892 1.74056 3.34634 
1 -0.500252 1.4974 2.28595 
1 -0.282772 0.458228 2.73114 
1 0.205487 1.1421 3.40764 
1 0.491412 0.150123 3.67647 
1 0.573709 1.20795 2.42107 
1 0.692629 0.146346 2.60818 
2 0.890903 1.64976 3.16944 
1 1.27437 0.818384 3.26136 
2 1.29473 1.4035 1.85391 
1 1.51467 0.636997 2.23968 
1 1.6089 1.66815 2.64136 
2 3.7712 -1.44987 2.51367 
1 -0.184723 3.73465 1.90336 
1 1.48009 3.7586 2.16349 
1 2.02324 -1.14627 3.40583 
1 3.37096 -2.17416 2.85918 
1 3.66611 -0.573235 2.22693 
1 2.55511 -0.096702 3.48811 
1 3.6195 -0.212014 3.24578 
1 2.0998 -1.08159 2.20136 
1 2.67267 -0.0960267 2.38881 
1 3.13023 -3.47302 2.23241 
1 2.17512 -2.94532 2.13222 
2 2.76245 -2.82792 2.76691 
1 2.27856 -3.6235 2.93902 
1 2.32089 -2.01767 2.71783 
1 2.39043 -2.66446 3.56431 
1 2.97263 -1.06168 2.87618 
1 3.13483 -1.55675 1.89119 
1 3.23972 -3.34014 3.31056 
1 3.13365 0.667546 2.94709 
2 3.20135 1.49884 3.24725 
1 3.47263 1.30692 2.18131 
2 3.70226 0.601571 3.59742 
2 2.19426 0.497876 2.88054 
1 2.30937 1.26548 3.28569 
1 2.47 1.0269 2.21447 
1 -3.39307 2.14635 2.06867 
1 -2.629 1.96454 2.82825 
1 -2.54239 2.77834 2.07395 
1 -2.83635 2.88362 3.23825 
1 -3.57316 3.38202 2.72396 
2 -2.23476 3.53219 3.3243 
1 -2.56739 3.72451 2.5 
2 -3.06493 2.11089 3.60845 
1 -1.8484 2.85497 2.8827 
2 -1.80951 3.39258 2.1431 
1 -1.52929 1.90854 2.62729 
2 -1.40426 2.27483 3.41996 
1 -0.955737 3.1206 2.37159 
1 -0.753889 2.8617 3.3487 
2 -0.721067 2.29532 2.6541 
1 -0.158108 2.54132 2.00628 
2 -0.149472 3.0684 2.74922 
1 0.158816 2.21271 2.9514 
1 0.287577 3.12306 3.58161 
1 0.666909 3.11939 2.47667 
1 0.864691 2.16334 2.09456 
1 1.17842 2.48967 3.19743 
1 1.33374 3.55412 3.21266 
1 2.02641 2.83784 2.62916 
1 2.02707 2.90204 3.73408 
2 2.05664 2.1494 3.24466 
2 2.40131 2.62911 1.85201 
1 3.68247 2.2571 3.0378 
1 2.70941 1.99641 2.62476 
1 3.08708 2.9229 2.27 
1 3.02334 3.07452 3.33976 
