ITEM: TIMESTEP
630
ITEM: NUMBER OF ATOMS
500
ITEM: BOX BOUNDS xy xz yz pp pp pp
-3.7345 3.80172 0.067221
-3.7345 3.7345 0
-3.7345 3.7345 0
ITEM: ATOMS type xu yu zu 
1 0.653419 -2.30458 2.45311 
1 -2.69531 -1.41453 -0.321627 
1 2.05017 -1.87887 -3.16894 
1 -0.330749 -0.197956 -0.0676043 
1 1.1548 -2.49839 -0.51521 
1 -1.55065 -3.61505 2.95124 
1 2.09676 3.28942 -2.53471 
1 -1.18121 -0.138206 2.75431 
1 2.19542 -0.317057 -1.48702 
1 -3.38238 -2.23357 1.93899 
1 1.2038 1.84599 1.10137 
1 -1.73428 -2.04419 1.00404 
1 -1.20647 0.0116784 -3.06352 
1 2.03095 2.90339 3.73138 
1 -2.11403 -0.50887 -2.99523 
1 0.96507 0.912687 -0.414328 
1 1.03947 -0.7495 2.17147 
1 -1.24005 0.915246 2.80892 
1 -3.35666 -2.23352 -0.185883 
1 -2.7757 -1.71196 0.710506 
1 -3.51236 1.48818 -2.3437 
1 -2.20866 -1.38325 -1.29919 
1 2.08355 1.84993 1.70261 
1 -2.41103 2.57997 0.996967 
1 -2.53891 -2.32087 -3.61365 
1 1.46175 -3.38184 -0.975638 
1 -1.81429 -1.90032 3.07589 
1 -0.697393 1.4398 -0.958999 
1 0.869172 0.972449 -3.16581 
1 -2.80844 0.159287 -2.47572 
1 3.05159 -2.75335 0.551552 
1 -2.62046 -2.65157 1.26196 
1 -1.18 -0.799095 0.0190554 
1 3.64297 -0.252602 3.24012 
1 3.3136 -0.00699905 -3.20455 
1 -2.24519 0.831408 0.165247 
1 -2.90312 0.441064 -0.594382 
1 -1.79777 -0.983487 2.51293 
1 -2.26908 -0.0325571 2.56484 
1 2.81509 2.08781 -3.71263 
1 3.00952 -1.9816 -1.50222 
1 -0.460812 -3.5636 2.97503 
1 0.00686526 -1.89343 -2.40353 
1 0.501168 -3.31031 2.48108 
1 0.848619 -0.0673713 -2.75987 
1 3.11623 2.11563 1.55741 
1 2.39824 -0.698112 -0.540775 
1 -2.42917 1.74962 1.78167 
1 2.85338 -0.61373 1.47266 
1 0.646876 -0.696365 0.126326 
1 -1.12566 1.06029 -2.75105 
1 -1.51344 2.71024 -1.55553 
1 -3.0576 -0.979825 -2.39336 
1 -0.717795 -0.166377 0.931405 
1 2.4659 -0.860175 -3.12879 
1 -1.84098 2.86838 2.88753 
1 0.935309 -3.56455 -1.89862 
1 2.17558 -2.95848 2.12769 
1 0.874681 2.16209 2.10227 
1 -0.849504 -1.32762 2.91524 
1 -0.469841 2.81823 0.0243786 
1 0.16568 2.22108 2.95703 
1 1.81607 0.684446 -1.66225 
1 -3.38744 2.14909 2.07027 
1 0.566008 -3.1649 3.53032 
1 -3.10608 -3.58134 3.50137 
1 -1.6705 1.6969 -1.308 
1 -3.36015 -3.30272 1.61132 
1 -0.261325 -2.52881 3.22121 
1 -0.585142 -1.84583 -0.313383 
1 -3.49706 2.97646 -2.44884 
1 -0.676295 1.74331 3.34678 
1 1.1518 -1.68308 1.70767 
1 1.3941 -1.06598 -2.80135 
1 0.610313 -3.46124 -0.355652 
1 1.35648 -3.70229 -3.18097 
1 -1.5508 2.57285 1.68414 
1 2.50679 -3.70332 -3.44386 
1 1.58384 2.33165 -2.01799 
1 -3.09622 -3.02646 -2.91734 
1 0.00202956 -0.681899 2.62475 
1 -1.29291 -3.43795 -2.9292 
1 1.92169 0.681308 -3.35911 
1 -1.04213 2.21041 -3.23709 
1 3.30092 2.27682 -1.95838 
1 -2.85328 -0.355296 1.75137 
1 -0.490351 1.50226 2.28857 
1 2.49485 -3.64514 -0.742731 
1 1.34019 0.219295 0.80488 
1 -3.20989 -0.406259 -3.31994 
1 -0.460731 -0.339092 3.586 
1 -3.03262 -2.08017 2.91052 
1 2.17557 -2.02355 1.63637 
1 -1.08157 3.54813 0.469177 
1 0.704394 0.142008 2.60682 
1 -2.32575 -2.87451 2.97871 
1 2.69313 -0.118704 2.39241 
1 -0.52989 1.75538 0.215276 
1 -1.91 -3.24298 -1.24297 
1 -2.08349 0.743356 -2.98158 
1 3.10308 -2.61906 1.63745 
1 0.509199 -1.71474 -0.228906 
1 -3.49501 -1.24855 3.4027 
1 1.28259 0.819594 3.26338 
1 -3.49754 2.22908 -0.291605 
1 2.96589 1.12906 1.17518 
1 0.776498 0.821139 1.44551 
1 -0.0234247 -2.48832 0.320046 
1 0.219385 -1.58329 3.20235 
1 2.16067 2.25812 -2.89899 
1 3.00439 0.928165 -3.48261 
1 3.69765 -2.50996 -2.19797 
1 2.1208 -1.092 2.20884 
1 0.795803 0.772348 -2.0893 
1 -1.52278 1.51354 -0.159973 
1 3.68533 -0.587291 2.21755 
1 -2.56528 1.73682 -1.88883 
1 0.299237 -2.22882 -3.37765 
1 -2.78613 3.63795 -1.35863 
1 1.5796 -0.301522 -3.5447 
1 -2.50344 -0.616019 3.39547 
1 2.96767 -1.85366 -2.59548 
1 2.28079 -2.27312 -0.0137165 
1 2.26856 -3.63806 2.93932 
1 1.5553 1.71968 -3.61821 
1 2.17506 -2.6054 -1.01792 
1 1.76805 1.37104 -2.51341 
1 -2.15608 3.39657 0.300431 
1 -1.12479 0.517046 0.0535932 
1 3.01477 -1.09902 2.87108 
1 2.72299 1.98781 2.63178 
1 -0.273069 -1.1635 0.453945 
1 -1.64089 -3.31731 -0.224826 
1 -0.135493 0.364235 -2.91842 
1 -0.948497 3.12803 2.37475 
1 -1.13577 -2.6124 2.64079 
1 0.0837327 -2.57006 -0.76494 
1 -1.74901 0.711822 -0.86309 
1 1.93879 -1.11878 1.07809 
1 -0.844174 1.87476 1.25074 
1 -2.56279 3.72647 2.49129 
1 2.2776 2.39697 -0.156773 
1 0.461775 -0.0125119 -0.779173 
1 -2.46874 -2.35215 -0.867517 
1 -2.26862 -3.66931 -2.42418 
1 -3.5095 3.1287 1.65491 
1 2.11613 -2.92293 -2.85313 
1 2.13852 1.59991 0.563678 
1 1.49951 3.70392 1.09244 
1 -2.88543 1.64501 0.408361 
1 1.62437 -3.17118 0.138579 
1 -3.45834 2.26791 1.0021 
1 2.57661 -0.120893 3.4876 
1 -0.81142 -0.729413 1.94376 
1 2.97814 -1.57932 -0.493954 
1 0.153731 3.6942 -1.25804 
1 -3.04735 -0.432211 0.079469 
1 -1.87598 -2.53877 -2.78667 
1 -0.751561 2.87421 3.35601 
1 3.22319 -3.63822 1.11513 
1 2.95099 -0.316827 -2.25704 
1 -0.27393 1.06866 -2.11603 
1 -2.84459 -1.13577 2.49225 
1 -3.60614 2.72815 -3.50545 
1 2.35533 -1.17793 -2.07318 
1 3.70189 2.23983 3.04641 
1 1.4766 -2.81109 2.94228 
1 2.86916 3.23279 -1.61411 
1 3.23746 -3.37845 3.30411 
1 -2.55926 2.44679 -1.09516 
1 3.14263 2.86829 -0.593779 
1 -0.153451 2.54186 2.01004 
1 3.50221 -1.09166 -1.81878 
1 2.03568 2.82604 2.62568 
1 -0.485698 -0.938373 -1.65199 
1 -2.34385 3.61744 1.40617 
1 -2.22242 -3.34621 -3.46348 
1 1.26703 1.86678 -0.00585115 
1 -3.41169 1.23967 3.082 
1 1.49129 2.41663 -0.910393 
1 0.176467 1.67883 1.45942 
1 -2.66642 -2.85979 -1.87351 
1 0.464452 -0.941985 -2.23874 
1 -3.05417 3.17324 -0.371344 
1 3.00927 2.86567 -2.88791 
1 1.17571 -2.49017 -1.5711 
1 -2.22171 2.37876 -0.0892218 
1 -2.93473 0.349797 3.35808 
1 2.55124 0.642662 -2.49393 
1 2.47336 0.171654 0.808136 
1 2.0814 -2.21224 -2.05056 
1 -3.3504 -0.204884 -1.62526 
1 1.32674 3.56538 3.22269 
1 0.0556381 1.9463 -1.65418 
1 -2.53277 2.77759 2.07568 
1 -0.301353 -1.95556 2.24659 
1 -1.19991 3.63105 1.51457 
1 -1.53028 1.91761 2.62841 
1 0.111173 -1.15945 1.62434 
1 -2.29919 1.00413 2.73711 
1 0.128774 -0.0472032 1.68996 
1 -0.489875 -3.33226 -0.202066 
1 -0.543274 -1.93785 1.14086 
1 -0.741757 -3.09796 -1.25857 
1 0.220387 0.938303 -1.19852 
1 -3.56303 -1.10758 -0.839425 
1 3.15042 -1.56392 1.86821 
1 -3.66656 -0.375187 0.957254 
1 -1.21228 3.69904 -1.90525 
1 0.937295 -0.675148 1.14646 
1 3.0228 3.04901 3.32936 
1 -2.57527 1.46271 -0.683069 
1 -0.952535 1.95539 -2.17532 
1 -3.49777 1.71661 -1.27297 
1 1.10389 -0.217267 -1.69701 
1 0.653448 2.86587 -1.76108 
1 2.86912 -0.719794 0.420889 
1 2.79643 1.26039 -1.64247 
1 -2.50449 2.81099 -2.0931 
1 -1.7241 -1.7313 -0.0604847 
1 -1.35998 2.47827 0.531979 
1 3.76143 1.6641 -3.46361 
1 -2.63657 1.97269 2.84296 
1 -2.13592 -0.922653 0.473628 
1 -2.34492 -2.56373 0.214012 
1 0.484716 3.35127 -2.77797 
1 1.21843 2.66813 -3.05533 
1 1.32916 -1.61359 2.78253 
1 0.512104 0.15043 3.67757 
1 -0.939241 -2.69593 -2.2253 
1 2.32213 1.25039 3.28626 
1 3.48722 1.3053 2.19817 
1 2.41637 3.48928 1.633 
1 -0.0700713 -0.984198 -0.690417 
1 -0.44711 -0.65081 -2.70774 
1 -2.41495 0.65769 1.72852 
1 1.76496 3.22494 -1.51723 
1 -1.54147 2.91269 -2.59281 
1 0.368103 -0.833736 -3.35799 
1 2.06249 -1.16591 3.39922 
1 -0.409082 -3.31243 0.901498 
1 1.85691 -0.198301 1.65819 
1 0.704896 2.85645 -0.343313 
1 0.345497 2.35066 0.588222 
1 -2.67439 -1.33948 -3.31516 
1 3.15641 -2.76372 -3.12908 
1 3.3596 -2.18698 2.78695 
1 2.39342 2.60741 0.941463 
1 -3.27444 0.453362 2.34677 
1 1.67995 3.29828 -0.322898 
1 -3.31066 1.22907 1.39361 
1 -2.24518 -1.20836 1.51937 
1 -1.59929 1.39522 3.72062 
1 -1.90983 1.79893 -2.71034 
1 3.57937 0.52354 -2.20552 
1 1.96725 1.41585 -0.761779 
1 -0.313158 -3.29119 -3.38392 
1 2.97368 -1.72239 -3.72198 
1 -2.65127 1.34785 -3.65713 
1 -0.586402 3.19954 -3.1182 
1 0.32657 0.227685 0.622393 
1 -1.46893 -0.751697 3.60347 
1 1.1239 -2.11913 -2.57705 
1 -3.56007 3.35716 2.71971 
1 -3.33294 0.729473 -3.13392 
1 2.43874 2.25671 -1.33685 
1 -1.35277 -0.645545 -2.18139 
1 1.18784 2.49278 3.19846 
1 1.57533 2.78875 1.64042 
1 3.41094 0.321441 1.66012 
1 1.23454 -2.78596 1.62056 
1 0.219747 1.14487 3.41166 
1 -2.4477 0.0190775 0.856294 
1 3.15 -2.65764 -0.522231 
1 -3.58859 1.18186 -0.25383 
1 -1.40597 -2.81196 3.63522 
1 -1.29807 -1.74768 1.9487 
1 -3.28151 0.566456 0.536164 
1 0.288951 1.79983 -0.490948 
1 -2.8138 -2.06282 -2.52117 
1 1.52965 0.634157 2.24659 
1 -1.61864 -1.68761 -3.37855 
1 -0.744725 0.700006 3.71911 
1 0.500262 1.28829 0.503767 
1 -0.0427613 2.40095 -2.70883 
1 -1.75456 -3.15378 0.89334 
1 -0.995266 -1.60793 -2.48005 
1 1.55097 -2.12102 0.757519 
1 3.56474 0.657246 -1.11769 
1 2.48927 1.01501 2.21837 
1 3.09715 2.90872 2.26366 
1 2.40579 -2.67973 3.56694 
1 3.19733 -0.327439 -1.12612 
1 3.0215 -3.05124 -1.52626 
1 1.34394 -2.62868 -3.49413 
1 -0.182809 3.73207 1.89289 
1 0.701768 -3.12276 0.728947 
1 -3.15632 3.41132 0.687503 
1 -2.62625 -0.516755 -0.878793 
1 -2.16096 2.30888 -3.63741 
1 -1.88418 -3.12406 2.0157 
1 -3.57675 -3.52553 -2.04262 
1 3.69 3.72494 -3.20915 
1 2.95927 1.61987 -2.6884 
1 0.388135 -1.68154 -1.37314 
1 1.32422 -1.38282 -1.79567 
1 -0.427501 0.896189 0.990241 
1 0.290065 3.13436 3.58697 
1 -0.130716 0.831655 -0.195017 
1 2.75572 -1.73397 0.779217 
1 -3.51331 2.81965 -1.34604 
1 -0.926174 3.41154 -0.828297 
1 0.550126 2.0227 -3.54232 
1 -3.34045 -1.26339 1.52182 
1 0.773834 1.78986 -2.46375 
1 1.4971 3.74284 2.16761 
1 -1.97061 -0.110895 -0.161742 
1 3.14823 1.92041 0.405246 
1 2.42237 3.5605 0.443019 
1 -2.97009 0.801949 -1.61555 
1 0.270208 3.43647 0.441474 
1 0.534424 -1.76053 0.854459 
1 -0.579142 -1.35847 -3.50867 
1 -0.648429 -1.99973 -1.47183 
1 -1.6113 3.22201 -3.60176 
1 1.08249 1.54412 -1.38692 
1 3.03324 1.69319 -0.657369 
1 1.11704 -1.60382 -3.65086 
1 -2.81927 2.89776 3.26063 
1 1.62242 1.6668 2.64662 
1 0.585433 1.20498 2.42285 
1 -1.22418 -1.28785 -0.917584 
1 -0.489524 2.92677 1.09864 
1 -2.29762 -2.10007 2.12956 
1 1.89569 0.671092 0.0460876 
1 -1.01981 0.3083 -1.99441 
1 1.7304 -0.24504 2.82675 
1 -1.90662 1.61121 0.8644 
1 3.12279 -3.49403 2.22275 
1 0.896468 -0.746935 3.21743 
1 -1.18306 2.38021 -0.609899 
1 -0.225825 1.45018 -3.13137 
1 -3.37681 -3.01594 0.530003 
1 3.15312 0.643638 2.95175 
1 1.88577 -0.192709 -2.47814 
1 -2.73082 -3.31904 -0.401158 
1 1.0538 -0.914062 -0.862062 
1 -0.940392 -2.78789 1.63476 
1 -1.76544 -2.23447 -1.74466 
1 -2.0335 -1.40445 -2.40076 
1 2.90668 -3.56758 -2.4492 
1 -2.66553 3.19274 -3.17471 
1 3.46028 0.0481778 -0.104295 
1 -3.19743 -1.82932 -1.55688 
1 0.671189 3.11826 2.48104 
1 3.30602 -3.61821 0.0203481 
1 2.92217 0.910816 0.132358 
1 1.54106 -1.54162 -0.171635 
1 3.35641 2.93081 0.497646 
1 -1.5586 0.585401 1.00743 
1 -1.25388 -1.07893 1.05212 
1 -1.95318 0.829407 -1.92844 
1 -3.69653 -1.26513 0.236048 
1 1.54808 0.0390238 -0.723409 
1 0.160577 -2.75243 -1.81679 
1 -0.490772 2.92561 -1.9129 
1 2.31674 -2.03876 2.71609 
1 -1.5679 -0.308296 -1.14648 
1 -0.666375 0.317692 -0.986211 
1 2.03693 -3.29277 -1.86289 
1 2.06767 -1.55916 -1.08515 
1 0.159 -2.69975 1.57733 
1 3.60894 -3.71555 -0.962762 
1 -2.92037 2.15418 -2.88955 
1 -1.48928 1.2533 1.81642 
1 3.48717 -0.999291 -2.91417 
1 1.8895 0.912069 1.31495 
1 0.03538 0.0127729 -1.84112 
1 -1.72941 -0.257774 1.63194 
1 -3.44759 -3.04368 2.63117 
1 -0.848871 0.399735 1.84989 
1 -0.267462 0.471135 2.73029 
1 -1.37589 -2.4182 -0.760976 
1 -0.74845 -2.34253 -3.20125 
1 -3.726 -2.07234 0.946383 
1 2.17513 -2.98883 1.05825 
1 1.71704 -0.539956 0.215112 
1 0.588851 3.10615 1.39827 
1 -0.139987 2.68956 -0.951296 
1 2.54749 0.489678 -0.818431 
1 -3.55364 -2.65458 3.60717 
1 0.616178 -3.05376 -2.78247 
1 -1.08304 -2.55895 0.328333 
1 -0.317953 -3.55356 -2.30648 
1 -1.84552 0.298811 3.536 
1 -2.31086 -0.478349 -1.86522 
1 -3.44419 -2.77206 -1.15403 
1 1.36056 2.78461 0.560948 
1 -3.58263 -1.90929 -3.18703 
1 -1.99439 3.27434 -0.756555 
2 2.4835 2.59908 -2.14819 
2 3.72315 1.31009 0.628823 
2 1.30639 1.40097 1.85977 
2 -1.83794 0.0892752 -2.39916 
2 2.80292 -1.10559 -1.26224 
2 0.99033 3.36311 -1.04116 
2 1.36038 1.11125 0.6069 
2 0.092631 -0.552546 0.94731 
2 1.21427 -1.26909 0.574951 
2 -1.66677 0.46152 2.18068 
2 -1.43728 3.05684 -0.133931 
2 2.55204 0.0269056 -0.0529357 
2 -2.98336 2.60373 0.32346 
2 -1.03208 -3.43514 2.26385 
2 -1.39328 2.27811 3.42061 
2 -3.25079 2.26546 -1.9897 
2 -3.463 -0.226525 -0.741888 
2 -3.20547 0.346148 1.38708 
2 3.21118 1.4826 3.24648 
2 -1.7504 -3.05041 -2.08983 
2 -0.717761 2.30216 2.65981 
2 3.32008 -2.03622 0.151338 
2 -2.57641 0.994324 0.948543 
2 -3.03934 1.31812 2.26678 
2 3.33735 0.383435 0.753759 
2 1.38853 -2.92765 -2.34351 
2 1.26431 3.16392 -2.31653 
2 3.63566 2.21912 -2.78959 
2 1.19474 -1.77384 -0.99334 
2 -1.27123 -0.928124 -3.01607 
2 2.5144 -3.13843 -0.0255181 
2 -1.80045 3.39501 2.14126 
2 1.12389 3.60875 0.294008 
2 1.02943 0.568053 -1.24154 
2 2.76196 -2.85379 2.76672 
2 0.900005 1.6538 3.1668 
2 3.39233 -1.18552 1.04093 
2 3.14969 -0.808306 -3.72968 
2 -0.175149 -2.72967 -2.66832 
2 -1.14144 1.25749 0.610136 
2 0.614 -1.51992 -2.91526 
2 2.79745 -2.68289 -2.29822 
2 -1.57706 -0.255492 0.670467 
2 0.376615 -0.698001 -1.39704 
2 -1.01836 -1.66304 0.442929 
2 -0.768623 2.23136 -1.3726 
2 -2.87416 -0.790731 0.931825 
2 -1.70362 3.1393 1.00416 
2 2.29864 2.9759 -0.862196 
2 -0.99642 -2.02781 3.4579 
2 -1.01089 -3.69329 3.68692 
2 2.44364 0.0204586 -3.11811 
2 2.32333 1.46167 -3.27734 
2 0.652533 2.30668 -1.09341 
2 0.00683702 3.40504 -0.434768 
2 -1.10465 1.16678 -1.76107 
2 1.79633 -3.3129 3.62827 
2 -3.04429 2.12044 3.63345 
2 -0.279934 -2.86481 2.35794 
2 -2.55516 -1.47769 3.29645 
2 3.66365 -1.9811 -0.903504 
2 -2.2328 3.56515 3.31437 
2 -0.243595 2.37823 -3.60496 
2 0.663017 -3.09536 -1.16817 
2 -2.55631 0.149238 -3.36581 
2 1.94246 1.58187 -1.65445 
2 -0.807823 -0.524555 -0.759139 
2 3.71075 0.553217 3.60746 
2 1.47691 0.558356 -2.59843 
2 -2.73046 1.06252 -2.46577 
2 -2.73621 -2.88451 2.13778 
2 3.80854 -1.47264 2.48342 
2 0.854907 -2.368 0.286822 
2 -3.6182 -1.66419 -2.35682 
2 2.22168 0.480532 2.88159 
2 -2.00023 3.42627 -1.64788 
2 -0.0404471 0.840605 1.85347 
2 -3.08828 -0.325323 2.74832 
2 1.00777 0.109405 -0.0142586 
2 0.662331 -3.48995 1.59763 
2 3.12389 2.98849 1.3545 
2 -1.41476 -1.4142 -1.74492 
2 -2.34938 0.221375 -1.31676 
2 -1.93333 -0.947005 -0.488853 
2 -2.98923 -0.989888 -1.51941 
2 -0.14546 3.07472 2.75505 
2 0.513541 -1.43148 2.37728 
2 2.07057 2.14561 3.24826 
2 2.41037 2.62292 1.84605 
2 2.3373 -1.33916 0.102696 
2 -2.58513 -3.35215 0.660064 
2 0.800706 -2.29242 3.3276 
2 1.7788 -2.058 3.42888 
2 3.27005 -0.767956 -0.35118 
2 -3.62261 -0.283759 -2.49997 
2 2.53544 0.363048 1.64995 
2 1.57523 -2.2707 2.25109 
2 2.83759 0.347042 -1.66028 
2 1.01678 0.0334219 1.73887 
2 -3.57249 -3.09027 -0.342043 
