ITEM: TIMESTEP
19
ITEM: NUMBER OF ATOMS
500
ITEM: BOX BOUNDS xy xz yz pp pp pp
-3.7345 3.74197 0.007469
-3.7345 3.7345 0
-3.7345 3.7345 0
ITEM: ATOMS type xu yu zu 
1 0.603944 -2.32102 2.49833 
1 -2.70444 -1.41994 -0.309552 
1 2.00204 -1.86617 -3.14335 
1 -0.359485 -0.185306 -0.0956859 
1 1.16708 -2.49713 -0.494104 
1 -1.5339 -3.63349 2.92208 
1 2.05491 3.28233 -2.52958 
1 -1.22539 -0.167682 2.72933 
1 2.1531 -0.332413 -1.47709 
1 -3.39388 -2.14995 2.04079 
1 1.1587 1.84573 1.09676 
1 -1.74449 -2.06765 1.03497 
1 -1.26896 -0.00642682 -3.07734 
1 1.99142 2.90964 3.7296 
1 -2.16227 -0.573703 -2.98356 
1 0.920586 0.908215 -0.416539 
1 1.01369 -0.762448 2.17453 
1 -1.27583 0.897485 2.79415 
1 -3.37158 -2.2298 -0.185766 
1 -2.79055 -1.71034 0.718004 
1 -3.55182 1.48997 -2.3541 
1 -2.23942 -1.39244 -1.29125 
1 2.03992 1.8472 1.69812 
1 -2.4718 2.58215 0.99646 
1 -2.45877 -2.36381 -3.57153 
1 1.47326 -3.37654 -0.979007 
1 -1.74335 -2.00722 3.04565 
1 -0.733647 1.45654 -0.960381 
1 0.822478 0.968387 -3.17321 
1 -2.84118 0.148916 -2.48274 
1 3.034 -2.77304 0.590161 
1 -2.64203 -2.6501 1.25727 
1 -1.23549 -0.727203 0.00205714 
1 3.60388 -0.222222 3.24613 
1 3.26763 0.00121107 -3.1928 
1 -2.32369 0.860895 0.160184 
1 -2.95399 0.430548 -0.613368 
1 -1.87402 -1.03533 2.57979 
1 -2.30649 -0.0476623 2.54945 
1 2.78088 2.10689 -3.72241 
1 3.00282 -1.99656 -1.51274 
1 -0.426674 -3.56284 2.97127 
1 -0.0340146 -1.89812 -2.39029 
1 0.544097 -3.33067 2.41115 
1 0.798086 -0.0661449 -2.75413 
1 3.07179 2.07358 1.55306 
1 2.37017 -0.735295 -0.538922 
1 -2.4859 1.7445 1.74344 
1 2.81117 -0.581877 1.47427 
1 0.604496 -0.703222 0.133076 
1 -1.17432 1.045 -2.76687 
1 -1.56233 2.7071 -1.55639 
1 -3.09268 -1.01025 -2.41885 
1 -0.755204 -0.171389 0.915752 
1 2.4106 -0.843288 -3.1238 
1 -1.88721 2.85241 2.89245 
1 0.937549 -3.56038 -1.89328 
1 2.16477 -2.94053 2.14298 
1 0.833257 2.15574 2.09253 
1 -0.885699 -1.30654 2.94997 
1 -0.521756 2.84805 0.0266404 
1 0.129517 2.21702 2.95437 
1 1.77883 0.677518 -1.66872 
1 -3.42893 2.17695 2.05254 
1 0.555218 -3.14948 3.47332 
1 -3.06637 -3.59375 3.51839 
1 -1.71485 1.69091 -1.30774 
1 -3.44191 -3.19964 1.62403 
1 -0.287195 -2.51977 3.24735 
1 -0.598891 -1.87526 -0.301159 
1 -3.53193 2.98444 -2.47695 
1 -0.712535 1.73789 3.35292 
1 1.08574 -1.71707 1.72035 
1 1.34585 -1.04898 -2.79208 
1 0.636123 -3.48087 -0.360069 
1 1.36711 -3.70231 -3.16187 
1 -1.58749 2.54603 1.65769 
1 2.51476 -3.69317 -3.4455 
1 1.54092 2.33269 -2.02519 
1 -3.05228 -3.10131 -2.90073 
1 -0.0379126 -0.684153 2.63454 
1 -1.2534 -3.43512 -2.91482 
1 1.88555 0.696569 -3.3627 
1 -1.08733 2.20222 -3.2303 
1 3.27037 2.29193 -1.96544 
1 -2.90173 -0.338677 1.73429 
1 -0.53013 1.49064 2.28531 
1 2.50723 -3.66417 -0.741853 
1 1.29108 0.237417 0.774209 
1 -3.26014 -0.411178 -3.31023 
1 -0.522306 -0.358537 3.59047 
1 -2.91794 -1.97314 3.03467 
1 2.13395 -2.00652 1.64505 
1 -1.11619 3.57069 0.504975 
1 0.66843 0.134365 2.6061 
1 -2.34141 -2.89949 2.98605 
1 2.63927 -0.0896671 2.38772 
1 -0.588674 1.7823 0.180885 
1 -1.90389 -3.23952 -1.22162 
1 -2.13255 0.712951 -3.01503 
1 3.07909 -2.58413 1.68307 
1 0.499667 -1.70959 -0.254513 
1 -3.59209 -1.22307 3.40813 
1 1.24226 0.814905 3.26252 
1 -3.54778 2.22853 -0.298976 
1 2.90208 1.10853 1.16527 
1 0.735587 0.810821 1.44563 
1 -0.0443521 -2.46498 0.380449 
1 0.181957 -1.57538 3.23366 
1 2.1154 2.25958 -2.91065 
1 2.96212 0.93422 -3.48257 
1 3.6769 -2.53948 -2.22354 
1 2.07714 -1.0735 2.20611 
1 0.748857 0.772677 -2.0921 
1 -1.56393 1.48949 -0.194684 
1 3.63273 -0.560545 2.2156 
1 -2.6016 1.74265 -1.9038 
1 0.27409 -2.2407 -3.35776 
1 -2.8188 3.66807 -1.34369 
1 1.52905 -0.279769 -3.53775 
1 -2.58964 -0.610804 3.38175 
1 2.93023 -1.87322 -2.59609 
1 2.27356 -2.28267 0.00558795 
1 2.2761 -3.60636 2.96099 
1 1.51115 1.7177 -3.62287 
1 2.19197 -2.61956 -1.00534 
1 1.72938 1.37098 -2.51878 
1 -2.20404 3.36753 0.29645 
1 -1.18542 0.489109 0.0440992 
1 2.94493 -1.04743 2.88192 
1 2.68138 1.99845 2.61839 
1 -0.339693 -1.1408 0.432039 
1 -1.62175 -3.34924 -0.216528 
1 -0.186325 0.363137 -2.9185 
1 -1.00717 3.0891 2.36817 
1 -1.07661 -2.6639 2.57617 
1 0.0992418 -2.58588 -0.732236 
1 -1.8168 0.696413 -0.892376 
1 1.9312 -1.10778 1.06504 
1 -0.884454 1.86733 1.21673 
1 -2.62963 3.71026 2.48779 
1 2.25202 2.40516 -0.155927 
1 0.426165 -0.014951 -0.792857 
1 -2.49838 -2.36079 -0.866613 
1 -2.22893 -3.66625 -2.41858 
1 -3.47456 3.2039 1.6898 
1 2.11053 -2.91613 -2.85935 
1 2.10276 1.60864 0.567736 
1 1.42404 3.69974 1.11293 
1 -2.97447 1.67122 0.447963 
1 1.65087 -3.182 0.124772 
1 -3.53589 2.36416 1.00594 
1 2.53184 -0.0994457 3.48947 
1 -0.836892 -0.743946 1.91917 
1 2.96888 -1.60763 -0.490929 
1 0.0819102 3.70024 -1.25963 
1 -3.09979 -0.438812 0.074644 
1 -1.83951 -2.52901 -2.74132 
1 -0.773511 2.86718 3.34628 
1 3.24926 -3.68987 1.10153 
1 2.9124 -0.315337 -2.24126 
1 -0.329851 1.06207 -2.11199 
1 -2.92235 -1.10863 2.46492 
1 -3.65009 2.73048 -3.52229 
1 2.33446 -1.18597 -2.07214 
1 3.65571 2.25013 3.02884 
1 1.4691 -2.79764 2.95616 
1 2.80172 3.23866 -1.63913 
1 3.24559 -3.31504 3.31732 
1 -2.58517 2.4375 -1.09959 
1 3.10182 2.82997 -0.672062 
1 -0.196463 2.51993 2.00604 
1 3.48573 -1.09291 -1.8162 
1 2.02422 2.84139 2.62804 
1 -0.546517 -0.92625 -1.64103 
1 -2.46146 3.63559 1.40252 
1 -2.16039 -3.36651 -3.46746 
1 1.23443 1.85973 -0.00783191 
1 -3.44172 1.25632 3.08291 
1 1.45998 2.40143 -0.914192 
1 0.132822 1.66697 1.45093 
1 -2.64109 -2.8436 -1.87984 
1 0.420466 -0.946495 -2.2288 
1 -3.08374 3.15707 -0.393415 
1 2.96558 2.86956 -2.8969 
1 1.16221 -2.48073 -1.55024 
1 -2.27531 2.34008 -0.0851301 
1 -2.96742 0.36829 3.36734 
1 2.51956 0.647214 -2.49609 
1 2.41461 0.168143 0.788378 
1 2.05592 -2.22042 -2.04443 
1 -3.38299 -0.201554 -1.62323 
1 1.27667 3.57014 3.24184 
1 0.0105857 1.94427 -1.65935 
1 -2.54461 2.7658 2.06738 
1 -0.320163 -1.91604 2.27989 
1 -1.25423 3.62425 1.5285 
1 -1.55933 1.90833 2.63767 
1 0.114178 -1.14659 1.65357 
1 -2.33582 0.996831 2.72888 
1 0.0841693 -0.0496424 1.6913 
1 -0.453612 -3.35129 -0.161391 
1 -0.541025 -1.88053 1.19274 
1 -0.756213 -3.07183 -1.19735 
1 0.174726 0.936355 -1.19775 
1 -3.58494 -1.13292 -0.832312 
1 3.10403 -1.53067 1.89013 
1 -3.71351 -0.362724 0.955548 
1 -1.24654 3.70745 -1.87812 
1 0.919664 -0.659719 1.14679 
1 2.97085 3.07287 3.30511 
1 -2.62976 1.45425 -0.702088 
1 -1.01468 1.93439 -2.16395 
1 -3.54147 1.72717 -1.28552 
1 1.0613 -0.21768 -1.69506 
1 0.603997 2.87206 -1.76083 
1 2.83388 -0.724344 0.42465 
1 2.7612 1.25849 -1.64462 
1 -2.54809 2.82341 -2.09263 
1 -1.72395 -1.69478 -0.00528867 
1 -1.41907 2.52021 0.533225 
1 3.71761 1.66617 -3.4676 
1 -2.6693 1.96882 2.82056 
1 -2.18029 -0.892666 0.481961 
1 -2.33073 -2.54939 0.211239 
1 0.435601 3.34069 -2.78065 
1 1.1754 2.66998 -3.06246 
1 1.298 -1.62712 2.79125 
1 0.454794 0.145126 3.67187 
1 -0.915449 -2.70547 -2.18294 
1 2.28782 1.26624 3.282 
1 3.45248 1.32273 2.21388 
1 2.38469 3.4806 1.62297 
1 -0.113557 -0.997499 -0.689995 
1 -0.487989 -0.642424 -2.6952 
1 -2.4583 0.66355 1.72182 
1 1.69904 3.22533 -1.51633 
1 -1.56917 2.92224 -2.58758 
1 0.329147 -0.829457 -3.35253 
1 1.99929 -1.14091 3.40693 
1 -0.327258 -3.35948 0.949206 
1 1.81079 -0.184031 1.64332 
1 0.671613 2.84032 -0.353653 
1 0.29986 2.33567 0.572043 
1 -2.73567 -1.37529 -3.37085 
1 3.15143 -2.76338 -3.15517 
1 3.37489 -2.15499 2.88905 
1 2.37612 2.60812 0.944343 
1 -3.30786 0.473718 2.34863 
1 1.6366 3.29184 -0.33478 
1 -3.38373 1.24701 1.38291 
1 -2.28029 -1.20835 1.53462 
1 -1.64467 1.38935 3.69949 
1 -1.96521 1.77005 -2.74062 
1 3.54409 0.522062 -2.20476 
1 1.92944 1.41039 -0.777841 
1 -0.291363 -3.2873 -3.38718 
1 2.89559 -1.67455 -3.71062 
1 -2.69525 1.35628 -3.64662 
1 -0.618742 3.19448 -3.12795 
1 0.274004 0.214073 0.626964 
1 -1.54624 -0.75012 3.6016 
1 1.08362 -2.10794 -2.55626 
1 -3.62807 3.398 2.75609 
1 -3.37528 0.731069 -3.12753 
1 2.40158 2.24732 -1.35377 
1 -1.40814 -0.660751 -2.1977 
1 1.15792 2.49055 3.19443 
1 1.55109 2.77946 1.64303 
1 3.37761 0.3395 1.66573 
1 1.2019 -2.82048 1.65213 
1 0.177307 1.14067 3.40474 
1 -2.49208 0.0417302 0.847736 
1 3.15558 -2.6671 -0.511302 
1 -3.62066 1.18264 -0.261258 
1 -1.32678 -2.85958 3.5974 
1 -1.32324 -1.74185 1.97321 
1 -3.33448 0.560956 0.529411 
1 0.259638 1.79414 -0.494666 
1 -2.8648 -2.09552 -2.57408 
1 1.49069 0.637836 2.24651 
1 -1.64221 -1.68559 -3.3913 
1 -0.788164 0.688975 3.71241 
1 0.463287 1.27381 0.500166 
1 -0.0950334 2.38959 -2.70172 
1 -1.79419 -3.18497 0.894609 
1 -1.03857 -1.61854 -2.4622 
1 1.51796 -2.10635 0.763726 
1 3.52731 0.651164 -1.12096 
1 2.4544 1.01543 2.20729 
1 3.10683 2.89969 2.2209 
1 2.38891 -2.65488 3.56728 
1 3.16118 -0.341062 -1.12248 
1 3.025 -3.06784 -1.52057 
1 1.31713 -2.62562 -3.48148 
1 -0.220376 3.65224 1.91362 
1 0.731455 -3.0981 0.69599 
1 -3.23231 3.40666 0.653119 
1 -2.67512 -0.532566 -0.885925 
1 -2.20763 2.30639 -3.65738 
1 -1.88751 -3.13222 2.01291 
1 -3.57148 -3.54328 -2.02287 
1 3.62951 3.72507 -3.23111 
1 2.91596 1.63084 -2.68858 
1 0.368108 -1.68267 -1.37223 
1 1.30053 -1.36492 -1.78449 
1 -0.47548 0.893322 0.970893 
1 0.255944 3.13197 3.58029 
1 -0.194291 0.845456 -0.193 
1 2.74909 -1.75045 0.802651 
1 -3.51915 2.83688 -1.38261 
1 -0.95432 3.41316 -0.836054 
1 0.506189 2.02113 -3.54467 
1 -3.38878 -1.24295 1.50196 
1 0.733586 1.78824 -2.47054 
1 1.49201 3.71223 2.19248 
1 -2.057 -0.0871327 -0.171883 
1 3.1139 1.91189 0.413174 
1 2.36666 3.56788 0.45373 
1 -3.01037 0.810318 -1.63079 
1 0.266535 3.41417 0.445234 
1 0.51198 -1.67505 0.822809 
1 -0.601365 -1.36903 -3.47341 
1 -0.6639 -1.9929 -1.43422 
1 -1.63123 3.20077 -3.60725 
1 1.04014 1.53877 -1.39374 
1 2.99073 1.6872 -0.6574 
1 1.0832 -1.59821 -3.63557 
1 -2.87258 2.89092 3.23715 
1 1.5808 1.66482 2.6421 
1 0.544124 1.19936 2.41864 
1 -1.25386 -1.29758 -0.886744 
1 -0.525024 2.92148 1.10009 
1 -2.31725 -2.1137 2.13905 
1 1.86386 0.690584 0.0322275 
1 -1.06792 0.289659 -2.01246 
1 1.68777 -0.233923 2.83169 
1 -1.94325 1.62783 0.83327 
1 3.11777 -3.48031 2.23927 
1 0.864397 -0.751524 3.22069 
1 -1.24339 2.39299 -0.598369 
1 -0.266733 1.44083 -3.13224 
1 -3.38578 -3.01389 0.524003 
1 3.11178 0.659285 2.9524 
1 1.84486 -0.178986 -2.46749 
1 -2.71409 -3.3323 -0.362636 
1 1.02365 -0.908447 -0.85131 
1 -0.981131 -2.78274 1.54121 
1 -1.73868 -2.23398 -1.70181 
1 -2.07978 -1.45418 -2.38089 
1 2.92089 -3.55764 -2.46049 
1 -2.68666 3.18742 -3.18228 
1 3.40832 0.0373429 -0.110171 
1 -3.21527 -1.84413 -1.58733 
1 0.637766 3.10432 2.48863 
1 3.31187 -3.59819 0.0152945 
1 2.89067 0.908347 0.125298 
1 1.53879 -1.53644 -0.17371 
1 3.27594 2.92642 0.405653 
1 -1.60335 0.604719 1.00082 
1 -1.29581 -1.08862 1.02453 
1 -1.99542 0.828235 -1.96048 
1 -3.72915 -1.28285 0.263249 
1 1.51256 0.0472087 -0.725622 
1 0.149798 -2.75165 -1.79755 
1 -0.54097 2.91868 -1.90864 
1 2.31243 -2.00991 2.72137 
1 -1.61829 -0.330602 -1.14605 
1 -0.731817 0.337737 -0.998861 
1 2.04398 -3.29709 -1.87074 
1 2.05006 -1.58676 -1.09353 
1 0.147598 -2.64209 1.5722 
1 3.62145 -3.73048 -0.958508 
1 -2.96296 2.16029 -2.90121 
1 -1.53475 1.26647 1.80996 
1 3.42531 -0.992056 -2.89833 
1 1.83912 0.911042 1.30931 
1 -0.00836879 0.0102883 -1.83759 
1 -1.76264 -0.259538 1.61297 
1 -3.42147 -3.00798 2.66244 
1 -0.892151 0.402857 1.83751 
1 -0.308156 0.452927 2.72416 
1 -1.42351 -2.4116 -0.701275 
1 -0.777075 -2.3583 -3.16641 
1 -3.72663 -2.10116 0.987274 
1 2.13691 -2.97425 1.07459 
1 1.68447 -0.523593 0.202185 
1 0.553732 3.06886 1.40436 
1 -0.183364 2.67787 -0.944945 
1 2.51309 0.484496 -0.821722 
1 -3.46462 -2.6578 3.64701 
1 0.618239 -3.06003 -2.77061 
1 -1.09204 -2.59914 0.362649 
1 -0.300302 -3.56204 -2.30673 
1 -1.87371 0.29264 3.5022 
1 -2.36044 -0.504625 -1.87294 
1 -3.44673 -2.78438 -1.17111 
1 1.32844 2.7821 0.559327 
1 -3.65755 -1.88824 -3.20534 
1 -2.02802 3.26169 -0.754157 
2 2.44865 2.58381 -2.16465 
2 3.64166 1.26786 0.618353 
2 1.26285 1.39823 1.85392 
2 -1.89911 0.0688592 -2.41526 
2 2.78907 -1.13187 -1.25726 
2 0.925816 3.37769 -1.04334 
2 1.32837 1.12556 0.591968 
2 0.0628824 -0.57504 0.955809 
2 1.21673 -1.2321 0.559776 
2 -1.71199 0.460933 2.16353 
2 -1.44109 3.10788 -0.136367 
2 2.493 0.00733579 -0.0678873 
2 -3.02839 2.60334 0.311321 
2 -0.976251 -3.46648 2.253 
2 -1.42469 2.28239 3.42552 
2 -3.28628 2.26918 -2.01757 
2 -3.50653 -0.245645 -0.74029 
2 -3.2485 0.36878 1.38252 
2 3.17631 1.49679 3.24047 
2 -1.73043 -3.04756 -2.05629 
2 -0.746947 2.28501 2.66297 
2 3.30434 -2.06138 0.173786 
2 -2.62977 1.02384 0.956143 
2 -3.08468 1.33722 2.25758 
2 3.27935 0.370004 0.752728 
2 1.3913 -2.90504 -2.32764 
2 1.21515 3.17161 -2.3219 
2 3.59272 2.22505 -2.80048 
2 1.1679 -1.76879 -0.978453 
2 -1.29223 -0.936523 -3.02995 
2 2.5296 -3.13872 -0.0354139 
2 -1.8579 3.3892 2.14504 
2 1.10517 3.61062 0.293809 
2 0.989815 0.573047 -1.24651 
2 2.76797 -2.81118 2.76368 
2 0.859324 1.65172 3.16407 
2 3.33875 -1.16103 1.05275 
2 3.10564 -0.773506 -3.71603 
2 -0.173568 -2.7371 -2.6617 
2 -1.18049 1.25457 0.575487 
2 0.568495 -1.51849 -2.90791 
2 2.7765 -2.6932 -2.28816 
2 -1.62159 -0.217822 0.649457 
2 0.337383 -0.704105 -1.38961 
2 -1.01048 -1.72158 0.477362 
2 -0.822169 2.23856 -1.36793 
2 -2.92064 -0.771757 0.924191 
2 -1.7861 3.16239 1.03024 
2 2.24593 2.96217 -0.878941 
2 -0.9858 -2.01739 3.50214 
2 -0.977533 -3.71239 3.67534 
2 2.39521 0.0319136 -3.11751 
2 2.2889 1.47583 -3.28966 
2 0.616187 2.30224 -1.10247 
2 -0.0200823 3.39688 -0.437184 
2 -1.1504 1.13818 -1.73417 
2 1.79341 -3.2965 3.64898 
2 -3.09495 2.11391 3.60758 
2 -0.204207 -2.83508 2.39207 
2 -2.19913 -1.3813 3.40222 
2 3.6565 -2.00136 -0.91686 
2 -2.26609 3.54733 3.31066 
2 -0.28854 2.37398 -3.59386 
2 0.664908 -3.10321 -1.16315 
2 -2.55121 0.0728448 -3.40605 
2 1.90053 1.57724 -1.66458 
2 -0.834429 -0.518837 -0.792664 
2 3.67669 0.586175 3.60379 
2 1.42608 0.562455 -2.61146 
2 -2.76016 1.06425 -2.48486 
2 -2.73887 -2.90717 2.12192 
2 3.72402 -1.41597 2.52307 
2 0.823227 -2.32201 0.286319 
2 -3.66668 -1.68299 -2.3617 
2 2.1687 0.499248 2.88348 
2 -2.04062 3.43088 -1.63857 
2 -0.082345 0.836602 1.84305 
2 -3.14007 -0.299256 2.73968 
2 0.94868 0.0995309 -0.0319359 
2 0.546359 -3.48192 1.49951 
2 3.19298 2.91588 1.30834 
2 -1.44107 -1.39655 -1.72188 
2 -2.41645 0.20278 -1.34254 
2 -1.9696 -0.932056 -0.487274 
2 -3.03847 -0.999497 -1.5356 
2 -0.191562 3.07917 2.72399 
2 0.486977 -1.43856 2.41121 
2 2.03037 2.15091 3.24338 
2 2.39551 2.61414 1.84416 
2 2.33856 -1.37098 0.113689 
2 -2.59845 -3.36752 0.599703 
2 0.780611 -2.27684 3.35188 
2 1.75875 -2.0412 3.44316 
2 3.24495 -0.790368 -0.344348 
2 -3.65838 -0.294395 -2.48744 
2 2.50123 0.367757 1.62692 
2 1.55066 -2.27377 2.25789 
2 2.79779 0.347408 -1.65844 
2 0.970968 0.0278166 1.75374 
2 -3.55363 -3.09155 -0.355128 
