ITEM: TIMESTEP
788
ITEM: NUMBER OF ATOMS
500
ITEM: BOX BOUNDS xy xz yz pp pp pp
-3.7345 3.83907 0.104566
-3.7345 3.7345 0
-3.7345 3.7345 0
ITEM: ATOMS type xu yu zu 
1 0.665426 -2.30276 2.44838 
1 -2.68017 -1.41411 -0.321845 
1 2.06665 -1.88506 -3.17583 
1 -0.311555 -0.19783 -0.062064 
1 1.14139 -2.50598 -0.524118 
1 -1.54905 -3.61249 2.95554 
1 2.12813 3.29372 -2.53753 
1 -1.16066 -0.136855 2.75587 
1 2.21825 -0.309967 -1.48838 
1 -3.37118 -2.23435 1.9292 
1 1.23061 1.84584 1.10176 
1 -1.72436 -2.04022 0.99919 
1 -1.18576 0.0119918 -3.06134 
1 2.06203 2.90305 3.73278 
1 -2.09773 -0.501334 -2.99749 
1 0.987909 0.908277 -0.411831 
1 1.05713 -0.749371 2.16988 
1 -1.21778 0.916127 2.81214 
1 -3.34622 -2.23043 -0.189966 
1 -2.76532 -1.70983 0.710708 
1 -3.48445 1.48772 -2.34213 
1 -2.19056 -1.3837 -1.29733 
1 2.11186 1.84813 1.70236 
1 -2.38024 2.58556 0.997589 
1 -2.54628 -2.31692 -3.61893 
1 1.4617 -3.38465 -0.978275 
1 -1.81709 -1.89363 3.07318 
1 -0.66935 1.44529 -0.956536 
1 0.895757 0.970738 -3.16644 
1 -2.78743 0.163429 -2.47088 
1 3.06003 -2.748 0.553971 
1 -2.61224 -2.65149 1.25838 
1 -1.16314 -0.800421 0.0217397 
1 3.66686 -0.26327 3.24097 
1 3.33506 -0.00982489 -3.20696 
1 -2.22031 0.833605 0.170392 
1 -2.87851 0.442993 -0.590117 
1 -1.78055 -0.97949 2.50864 
1 -2.24756 -0.0303229 2.56864 
1 2.8421 2.0826 -3.71229 
1 3.01159 -1.97589 -1.49606 
1 -0.459959 -3.56214 2.97668 
1 0.0229905 -1.89207 -2.40403 
1 0.500335 -3.30714 2.4825 
1 0.872347 -0.0687835 -2.76212 
1 3.1447 2.11232 1.55628 
1 2.4161 -0.683426 -0.539044 
1 -2.40991 1.75033 1.78029 
1 2.86975 -0.608294 1.46943 
1 0.656161 -0.705612 0.127297 
1 -1.09555 1.06182 -2.75118 
1 -1.48438 2.70896 -1.55899 
1 -3.04182 -0.976698 -2.38605 
1 -0.70099 -0.165555 0.934741 
1 2.4879 -0.868061 -3.12852 
1 -1.81032 2.87335 2.88639 
1 0.932994 -3.56684 -1.90037 
1 2.18145 -2.96203 2.12437 
1 0.903451 2.16309 2.10182 
1 -0.836753 -1.32789 2.91319 
1 -0.438667 2.81793 0.0221879 
1 0.194602 2.22083 2.95875 
1 1.83694 0.687014 -1.66306 
1 -3.36379 2.15516 2.07474 
1 0.568636 -3.16336 3.53141 
1 -3.11235 -3.57129 3.49822 
1 -1.64371 1.69722 -1.30569 
1 -3.35926 -3.29928 1.60163 
1 -0.253944 -2.52554 3.21824 
1 -0.582961 -1.84258 -0.314309 
1 -3.47133 2.97689 -2.44458 
1 -0.649232 1.74333 3.34764 
1 1.16542 -1.68161 1.70381 
1 1.41616 -1.07162 -2.80163 
1 0.608853 -3.46487 -0.357213 
1 1.35194 -3.70196 -3.18578 
1 -1.52071 2.57681 1.68788 
1 2.50855 -3.70648 -3.44421 
1 1.61154 2.32989 -2.01904 
1 -3.10566 -3.00872 -2.92317 
1 0.0201252 -0.679894 2.62315 
1 -1.29705 -3.43583 -2.93496 
1 1.94813 0.676996 -3.36086 
1 -1.01097 2.20695 -3.23438 
1 3.32735 2.27674 -1.95753 
1 -2.83413 -0.355042 1.7566 
1 -0.466444 1.50254 2.28895 
1 2.4926 -3.63989 -0.737151 
1 1.36623 0.22326 0.792218 
1 -3.18588 -0.40383 -3.31846 
1 -0.440479 -0.340657 3.58555 
1 -3.02923 -2.08665 2.89907 
1 2.18943 -2.02699 1.63352 
1 -1.04222 3.55043 0.47192 
1 0.725993 0.143438 2.60709 
1 -2.32468 -2.87584 2.97811 
1 2.71081 -0.120807 2.39171 
1 -0.50337 1.75579 0.218814 
1 -1.90807 -3.24579 -1.24675 
1 -2.0539 0.744398 -2.97349 
1 3.11448 -2.62082 1.64101 
1 0.505748 -1.71803 -0.232207 
1 -3.48139 -1.26103 3.40999 
1 1.3071 0.818662 3.26391 
1 -3.46511 2.23193 -0.294061 
1 2.98913 1.12988 1.17441 
1 0.802014 0.819498 1.44432 
1 -0.0176841 -2.49181 0.313195 
1 0.234181 -1.58204 3.19806 
1 2.19089 2.25746 -2.89721 
1 3.03414 0.928883 -3.48391 
1 3.7032 -2.50337 -2.18937 
1 2.13778 -1.09324 2.20708 
1 0.818328 0.767967 -2.0888 
1 -1.49725 1.51702 -0.157026 
1 3.70145 -0.586767 2.21652 
1 -2.53863 1.73705 -1.88499 
1 0.308303 -2.224 -3.38097 
1 -2.75445 3.63776 -1.35424 
1 1.60207 -0.30621 -3.5454 
1 -2.48535 -0.627868 3.39164 
1 2.97927 -1.8481 -2.59443 
1 2.28881 -2.27151 -0.0122991 
1 2.26957 -3.64093 2.93629 
1 1.5848 1.71821 -3.61765 
1 2.16979 -2.59873 -1.01667 
1 1.79481 1.37013 -2.5158 
1 -2.1166 3.39732 0.300177 
1 -1.10392 0.518104 0.0555866 
1 3.03257 -1.10421 2.86853 
1 2.74876 1.98696 2.63236 
1 -0.261936 -1.16803 0.457222 
1 -1.63775 -3.31932 -0.228077 
1 -0.113602 0.359762 -2.91423 
1 -0.914466 3.13019 2.37791 
1 -1.13361 -2.60874 2.64513 
1 0.0744575 -2.57426 -0.769756 
1 -1.73319 0.716651 -0.855225 
1 1.95032 -1.12018 1.08353 
1 -0.820817 1.87416 1.2526 
1 -2.52774 3.72802 2.48827 
1 2.30557 2.39697 -0.158571 
1 0.479915 -0.0168077 -0.779933 
1 -2.46236 -2.35402 -0.869949 
1 -2.27478 -3.66995 -2.42522 
1 -3.47681 3.13386 1.65315 
1 2.12047 -2.92497 -2.85282 
1 2.16722 1.60304 0.56633 
1 1.53963 3.70186 1.0901 
1 -2.86024 1.6465 0.410611 
1 1.62513 -3.16827 0.134831 
1 -3.42709 2.26763 1.00897 
1 2.59877 -0.127576 3.48651 
1 -0.793865 -0.730507 1.94541 
1 2.98629 -1.5708 -0.486635 
1 0.191469 3.69365 -1.25778 
1 -3.026 -0.431913 0.0820689 
1 -1.87494 -2.53597 -2.79424 
1 -0.72005 2.87616 3.35966 
1 3.21682 -3.63771 1.11492 
1 2.97189 -0.318701 -2.2605 
1 -0.248213 1.06562 -2.1126 
1 -2.82861 -1.1411 2.49338 
1 -3.57677 2.72888 -3.50371 
1 2.36725 -1.17547 -2.0678 
1 3.73055 2.23468 3.05141 
1 1.48289 -2.81333 2.93889 
1 2.90183 3.23448 -1.60958 
1 3.24034 -3.39008 3.30167 
1 -2.53129 2.44893 -1.09298 
1 3.17327 2.87278 -0.587482 
1 -0.122588 2.54269 2.01206 
1 3.51468 -1.09247 -1.81498 
1 2.06632 2.82631 2.62606 
1 -0.456155 -0.955314 -1.66735 
1 -2.30489 3.62174 1.40543 
1 -2.23145 -3.34369 -3.4606 
1 1.29538 1.86412 -0.00704122 
1 -3.38463 1.23473 3.08903 
1 1.51854 2.41781 -0.912786 
1 0.202125 1.67892 1.45977 
1 -2.66919 -2.86441 -1.87178 
1 0.485731 -0.940919 -2.24414 
1 -3.02296 3.17757 -0.368164 
1 3.03845 2.86519 -2.88878 
1 1.18111 -2.49655 -1.57936 
1 -2.19851 2.37962 -0.0861721 
1 -2.91187 0.341995 3.35745 
1 2.5738 0.640291 -2.49521 
1 2.49581 0.177167 0.804955 
1 2.09143 -2.21019 -2.05053 
1 -3.33095 -0.204743 -1.6247 
1 1.36297 3.56538 3.21916 
1 0.0839582 1.94484 -1.65498 
1 -2.5042 2.77873 2.07535 
1 -0.2906 -1.95487 2.24364 
1 -1.16075 3.63148 1.51597 
1 -1.50378 1.91983 2.63292 
1 0.127355 -1.15948 1.62001 
1 -2.27787 1.00614 2.74061 
1 0.14815 -0.0473526 1.6894 
1 -0.492872 -3.33501 -0.20684 
1 -0.533557 -1.94419 1.13969 
1 -0.744124 -3.10397 -1.27044 
1 0.245585 0.937809 -1.19565 
1 -3.54771 -1.10371 -0.836611 
1 3.16258 -1.5608 1.85824 
1 -3.64834 -0.372802 0.957849 
1 -1.18249 3.69389 -1.915 
1 0.953193 -0.664885 1.1449 
1 3.052 3.04191 3.32685 
1 -2.55174 1.46597 -0.679552 
1 -0.922264 1.95404 -2.17241 
1 -3.47171 1.71741 -1.27236 
1 1.12567 -0.221918 -1.69582 
1 0.685836 2.8638 -1.75922 
1 2.88293 -0.717641 0.418829 
1 2.82115 1.26047 -1.64336 
1 -2.47875 2.81263 -2.09001 
1 -1.70805 -1.7291 -0.0696189 
1 -1.33112 2.4813 0.528579 
1 3.79057 1.66603 -3.46018 
1 -2.6129 1.97629 2.84582 
1 -2.11854 -0.925257 0.474241 
1 -2.33323 -2.55894 0.210445 
1 0.517473 3.35228 -2.77682 
1 1.24851 2.66702 -3.05611 
1 1.34219 -1.61356 2.78002 
1 0.531764 0.150882 3.67791 
1 -0.941871 -2.69434 -2.2333 
1 2.34903 1.24696 3.28552 
1 3.51237 1.30961 2.20725 
1 2.45115 3.48505 1.63569 
1 -0.0644797 -0.980438 -0.695564 
1 -0.430793 -0.655614 -2.71345 
1 -2.39347 0.657963 1.73142 
1 1.80013 3.22282 -1.52069 
1 -1.5205 2.90694 -2.5972 
1 0.386018 -0.834975 -3.35981 
1 2.08105 -1.17251 3.39837 
1 -0.408069 -3.30792 0.900652 
1 1.874 -0.196721 1.65419 
1 0.735703 2.85321 -0.342598 
1 0.375895 2.34975 0.587291 
1 -2.66102 -1.33802 -3.30453 
1 3.16173 -2.76353 -3.12465 
1 3.36369 -2.18701 2.76195 
1 2.42646 2.60925 0.941402 
1 -3.2529 0.455637 2.34805 
1 1.70997 3.29762 -0.323691 
1 -3.29105 1.22811 1.39835 
1 -2.23009 -1.20684 1.51917 
1 -1.57143 1.39477 3.72499 
1 -1.88073 1.79902 -2.70434 
1 3.60101 0.524416 -2.2051 
1 1.99538 1.42153 -0.764301 
1 -0.309918 -3.29949 -3.38271 
1 2.99564 -1.73529 -3.72654 
1 -2.62327 1.34593 -3.65178 
1 -0.55929 3.19693 -3.11177 
1 0.349659 0.225766 0.624548 
1 -1.44951 -0.748922 3.60481 
1 1.13907 -2.12369 -2.58244 
1 -3.52264 3.35016 2.71899 
1 -3.31099 0.728264 -3.13445 
1 2.4661 2.25941 -1.33687 
1 -1.33084 -0.649237 -2.17457 
1 1.21774 2.49281 3.19913 
1 1.60756 2.78776 1.64077 
1 3.43165 0.32422 1.66326 
1 1.24119 -2.78668 1.6169 
1 0.246152 1.14594 3.40984 
1 -2.42678 0.0183147 0.859994 
1 3.15282 -2.65314 -0.521789 
1 -3.56205 1.18532 -0.252334 
1 -1.41965 -2.80249 3.63681 
1 -1.28792 -1.74853 1.94682 
1 -3.25705 0.568934 0.538437 
1 0.315511 1.79879 -0.488094 
1 -2.79786 -2.0577 -2.50761 
1 1.55407 0.633748 2.2478 
1 -1.60805 -1.68648 -3.3832 
1 -0.717972 0.699447 3.72113 
1 0.526689 1.28683 0.50472 
1 -0.0107308 2.39999 -2.70926 
1 -1.748 -3.151 0.893539 
1 -0.979846 -1.61107 -2.48801 
1 1.55975 -2.12815 0.761129 
1 3.58895 0.659511 -1.11502 
1 2.51585 1.01136 2.21815 
1 3.1329 2.90256 2.26321 
1 2.41403 -2.68665 3.56448 
1 3.21818 -0.323283 -1.12535 
1 3.01923 -3.04585 -1.52567 
1 1.35139 -2.63124 -3.49778 
1 -0.145959 3.73253 1.89402 
1 0.704297 -3.12383 0.72831 
1 -3.11769 3.41858 0.688574 
1 -2.60634 -0.515179 -0.876891 
1 -2.12981 2.30867 -3.63114 
1 -1.88062 -3.12465 2.01776 
1 -3.57463 -3.52134 -2.04625 
1 3.72985 3.72598 -3.20524 
1 2.98784 1.61693 -2.68707 
1 0.398364 -1.68583 -1.37111 
1 1.33602 -1.39072 -1.7959 
1 -0.402791 0.895566 0.992095 
1 0.322245 3.1338 3.58999 
1 -0.107786 0.831003 -0.192094 
1 2.76534 -1.72681 0.772238 
1 -3.48635 2.81982 -1.34304 
1 -0.892469 3.41058 -0.836852 
1 0.580376 2.02098 -3.54198 
1 -3.32555 -1.2608 1.52171 
1 0.80206 1.78617 -2.46302 
1 1.53199 3.74405 2.16558 
1 -1.95095 -0.110375 -0.158001 
1 3.17783 1.92475 0.40431 
1 2.45936 3.55609 0.434163 
1 -2.94671 0.802931 -1.6121 
1 0.303017 3.43645 0.440434 
1 0.543157 -1.76919 0.853872 
1 -0.564277 -1.36235 -3.51291 
1 -0.643342 -2.00487 -1.47662 
1 -1.58311 3.22508 -3.60308 
1 1.10924 1.54162 -1.38716 
1 3.06177 1.69687 -0.658704 
1 1.13153 -1.60489 -3.65296 
1 -2.7836 2.90286 3.27004 
1 1.64994 1.66574 2.64646 
1 0.610899 1.20632 2.42125 
1 -1.2038 -1.27409 -0.926126 
1 -0.456333 2.92169 1.09765 
1 -2.28793 -2.10186 2.12425 
1 1.92447 0.679142 0.0396417 
1 -0.995747 0.306591 -1.99656 
1 1.74984 -0.247485 2.82682 
1 -1.88041 1.61537 0.866181 
1 3.12406 -3.5017 2.21925 
1 0.913968 -0.746309 3.21639 
1 -1.15737 2.38306 -0.61 
1 -0.193104 1.4468 -3.12906 
1 -3.3694 -3.00929 0.527264 
1 3.17946 0.636386 2.95161 
1 1.90643 -0.195841 -2.47956 
1 -2.72824 -3.31716 -0.397333 
1 1.071 -0.919294 -0.859425 
1 -0.935455 -2.78824 1.63999 
1 -1.76895 -2.23886 -1.75043 
1 -2.01533 -1.39927 -2.40391 
1 2.90642 -3.56945 -2.44667 
1 -2.63973 3.19591 -3.17004 
1 3.48638 0.0506367 -0.101088 
1 -3.18613 -1.82743 -1.54821 
1 0.703167 3.12041 2.48067 
1 3.30978 -3.615 0.0231242 
1 2.94958 0.91528 0.130568 
1 1.53669 -1.55802 -0.165041 
1 3.39703 2.93287 0.499527 
1 -1.53739 0.586993 1.01035 
1 -1.23774 -1.078 1.05499 
1 -1.92815 0.827152 -1.92137 
1 -3.68161 -1.2613 0.234987 
1 1.56817 0.0362659 -0.720459 
1 0.162782 -2.75401 -1.81885 
1 -0.458174 2.92497 -1.9134 
1 2.32345 -2.04424 2.71377 
1 -1.55132 -0.295727 -1.14688 
1 -0.647357 0.326092 -0.985272 
1 2.03649 -3.29172 -1.86198 
1 2.07595 -1.54627 -1.07407 
1 0.164971 -2.7039 1.57883 
1 3.60371 -3.71227 -0.962971 
1 -2.89153 2.15596 -2.88521 
1 -1.46889 1.25558 1.82004 
1 3.51199 -1.00241 -2.91775 
1 1.9111 0.912001 1.31479 
1 0.0559265 0.00790046 -1.83682 
1 -1.70992 -0.25623 1.63447 
1 -3.45086 -3.0467 2.62174 
1 -0.827652 0.40194 1.85206 
1 -0.245501 0.472028 2.73159 
1 -1.36917 -2.42026 -0.768315 
1 -0.740277 -2.34731 -3.21153 
1 -3.71831 -2.06626 0.944953 
1 2.1837 -2.99675 1.0547 
1 1.72353 -0.556676 0.213698 
1 0.622344 3.10642 1.39711 
1 -0.108039 2.68878 -0.952229 
1 2.56975 0.494656 -0.822802 
1 -3.57116 -2.64323 3.59176 
1 0.615687 -3.05206 -2.78505 
1 -1.07814 -2.55978 0.323166 
1 -0.322017 -3.55288 -2.30469 
1 -1.82765 0.298718 3.54133 
1 -2.29107 -0.478436 -1.86357 
1 -3.44359 -2.77024 -1.15244 
1 1.39207 2.78276 0.560299 
1 -3.56526 -1.92138 -3.17693 
1 -1.96023 3.2728 -0.756596 
2 2.51054 2.60448 -2.14649 
2 3.74935 1.31292 0.630607 
2 1.33203 1.40038 1.85978 
2 -1.81481 0.0867829 -2.39393 
2 2.81438 -1.09812 -1.25809 
2 1.02755 3.35883 -1.03953 
2 1.38894 1.11588 0.602439 
2 0.107314 -0.553411 0.94398 
2 1.22456 -1.274 0.585216 
2 -1.64517 0.463001 2.18349 
2 -1.39539 3.0664 -0.13649 
2 2.58341 0.0389999 -0.0549716 
2 -2.95949 2.6068 0.327908 
2 -1.03226 -3.43428 2.26682 
2 -1.36375 2.28254 3.42376 
2 -3.22407 2.26548 -1.98715 
2 -3.44133 -0.222523 -0.741456 
2 -3.18418 0.345683 1.38877 
2 3.23727 1.47825 3.24306 
2 -1.75257 -3.05176 -2.09727 
2 -0.689038 2.30358 2.6619 
2 3.33333 -2.03423 0.150211 
2 -2.55329 0.999371 0.953375 
2 -3.01777 1.32191 2.27156 
2 3.36081 0.387654 0.755342 
2 1.38897 -2.93844 -2.35163 
2 1.29703 3.16012 -2.31617 
2 3.66389 2.21951 -2.78697 
2 1.20785 -1.78047 -0.996373 
2 -1.26075 -0.928077 -3.01322 
2 2.5188 -3.13654 -0.0170179 
2 -1.76496 3.39628 2.13963 
2 1.15884 3.60974 0.295236 
2 1.05186 0.563839 -1.24048 
2 2.77038 -2.8591 2.76343 
2 0.927872 1.65391 3.16623 
2 3.40659 -1.18279 1.03869 
2 3.16902 -0.819118 -3.73246 
2 -0.174322 -2.72817 -2.6679 
2 -1.11676 1.25729 0.612165 
2 0.63162 -1.52075 -2.9164 
2 2.80447 -2.68055 -2.30041 
2 -1.55981 -0.256819 0.674321 
2 0.398235 -0.706508 -1.39882 
2 -1.01059 -1.66454 0.445704 
2 -0.739274 2.23513 -1.37141 
2 -2.85544 -0.788494 0.934636 
2 -1.66673 3.14152 1.00589 
2 2.33205 2.98061 -0.86178 
2 -0.994855 -2.02844 3.45064 
2 -1.01117 -3.69711 3.68842 
2 2.46604 0.0133245 -3.11779 
2 2.35067 1.45762 -3.27492 
2 0.680743 2.30198 -1.09294 
2 0.0410114 3.4029 -0.436046 
2 -1.07818 1.16497 -1.75755 
2 1.79975 -3.31691 3.62562 
2 -3.01254 2.12228 3.63937 
2 -0.280923 -2.86422 2.35671 
2 -2.56557 -1.49056 3.30855 
2 3.66793 -1.97532 -0.901439 
2 -2.20046 3.57538 3.3111 
2 -0.213457 2.37582 -3.60466 
2 0.663716 -3.09398 -1.16794 
2 -2.54398 0.165436 -3.35581 
2 1.9695 1.5833 -1.65628 
2 -0.798468 -0.510026 -0.746775 
2 3.73481 0.5415 3.60843 
2 1.50138 0.557821 -2.5989 
2 -2.70341 1.06414 -2.4629 
2 -2.73375 -2.88397 2.13535 
2 3.82261 -1.47334 2.47461 
2 0.864321 -2.36947 0.283837 
2 -3.60184 -1.66133 -2.35231 
2 2.24288 0.477647 2.88221 
2 -1.97003 3.42587 -1.64853 
2 -0.0158476 0.840499 1.85414 
2 -3.06716 -0.326776 2.74191 
2 1.01728 0.0990186 -0.0183762 
2 0.668522 -3.4915 1.59983 
2 3.15777 2.98637 1.3549 
2 -1.39797 -1.42816 -1.74887 
2 -2.32799 0.222292 -1.31441 
2 -1.91516 -0.944973 -0.489462 
2 -2.97044 -0.989752 -1.51382 
2 -0.112339 3.07376 2.75895 
2 0.528264 -1.42968 2.37349 
2 2.09808 2.14492 3.24854 
2 2.44273 2.61955 1.84791 
2 2.33247 -1.32756 0.101724 
2 -2.57827 -3.34808 0.655361 
2 0.81013 -2.29252 3.32436 
2 1.78831 -2.06314 3.42587 
2 3.28681 -0.761584 -0.350725 
2 -3.60257 -0.281736 -2.50189 
2 2.55591 0.359745 1.64858 
2 1.58423 -2.27218 2.24694 
2 2.86407 0.347281 -1.66277 
2 1.03569 0.0345369 1.74403 
2 -3.57037 -3.08758 -0.341753 
