ITEM: TIMESTEP
822
ITEM: NUMBER OF ATOMS
500
ITEM: BOX BOUNDS xy xz yz pp pp pp
-3.7345 3.84654 0.112035
-3.7345 3.7345 0
-3.7345 3.7345 0
ITEM: ATOMS type xu yu zu 
1 0.667741 -2.3022 2.44741 
1 -2.67721 -1.41411 -0.322038 
1 2.06963 -1.88634 -3.177 
1 -0.307951 -0.197803 -0.0611459 
1 1.13852 -2.50722 -0.525905 
1 -1.54865 -3.61165 2.95703 
1 2.13437 3.29491 -2.53807 
1 -1.15653 -0.136724 2.75588 
1 2.22269 -0.308675 -1.48834 
1 -3.36931 -2.23437 1.92823 
1 1.23555 1.84573 1.10174 
1 -1.72244 -2.03921 0.998091 
1 -1.18172 0.0116782 -3.06129 
1 2.06829 2.90304 3.73299 
1 -2.09404 -0.501129 -2.99748 
1 0.992178 0.907161 -0.410998 
1 1.06073 -0.749183 2.16951 
1 -1.21314 0.916272 2.81249 
1 -3.34398 -2.2299 -0.190665 
1 -2.76317 -1.7093 0.710659 
1 -3.47888 1.48771 -2.34207 
1 -2.18699 -1.38411 -1.29706 
1 2.11735 1.84801 1.70204 
1 -2.37408 2.58678 0.997858 
1 -2.54695 -2.31646 -3.61966 
1 1.46164 -3.38521 -0.978486 
1 -1.81694 -1.89259 3.07239 
1 -0.663767 1.44681 -0.95611 
1 0.901115 0.970359 -3.16662 
1 -2.78291 0.163933 -2.4703 
1 3.06201 -2.74708 0.554616 
1 -2.611 -2.65127 1.25783 
1 -1.15977 -0.80106 0.0218986 
1 3.67127 -0.26449 3.24136 
1 3.33924 -0.00988789 -3.20722 
1 -2.21549 0.833832 0.171223 
1 -2.87359 0.443202 -0.589677 
1 -1.77713 -0.978854 2.50797 
1 -2.24345 -0.0300386 2.56918 
1 2.84741 2.08177 -3.7122 
1 3.01221 -1.9746 -1.49484 
1 -0.459393 -3.56187 2.97722 
1 0.0264055 -1.89191 -2.40402 
1 0.500586 -3.30633 2.48291 
1 0.87689 -0.0690265 -2.76244 
1 3.15033 2.11171 1.55625 
1 2.41971 -0.680716 -0.538431 
1 -2.40643 1.75041 1.77926 
1 2.87316 -0.607374 1.46899 
1 0.657646 -0.707535 0.127776 
1 -1.08977 1.0617 -2.75152 
1 -1.47903 2.70854 -1.55987 
1 -3.03868 -0.976355 -2.38502 
1 -0.697502 -0.165189 0.935361 
1 2.49184 -0.870022 -3.12805 
1 -1.80398 2.87441 2.88622 
1 0.932724 -3.56738 -1.90051 
1 2.18256 -2.96262 2.1236 
1 0.909099 2.16341 2.1015 
1 -0.833936 -1.32777 2.91273 
1 -0.4332 2.81881 0.0215728 
1 0.200425 2.22063 2.95911 
1 1.84112 0.687452 -1.66332 
1 -3.35911 2.15626 2.07613 
1 0.56953 -3.16339 3.53183 
1 -3.11345 -3.57001 3.49775 
1 -1.63862 1.69709 -1.3052 
1 -3.35931 -3.29846 1.60016 
1 -0.251396 -2.52494 3.21738 
1 -0.58246 -1.84174 -0.314068 
1 -3.46643 2.97734 -2.4441 
1 -0.643848 1.74321 3.34781 
1 1.168 -1.6812 1.7029 
1 1.42036 -1.0727 -2.80153 
1 0.608361 -3.46523 -0.357298 
1 1.351 -3.70215 -3.18723 
1 -1.51437 2.57764 1.68894 
1 2.50867 -3.70678 -3.44436 
1 1.61707 2.32956 -2.01921 
1 -3.10707 -3.00613 -2.92366 
1 0.0238593 -0.679333 2.62259 
1 -1.29772 -3.435 -2.93662 
1 1.9536 0.676012 -3.36125 
1 -1.00498 2.20585 -3.23365 
1 3.33262 2.27702 -1.95756 
1 -2.83039 -0.354987 1.75733 
1 -0.461829 1.50281 2.28884 
1 2.49232 -3.63875 -0.735928 
1 1.37133 0.224023 0.789824 
1 -3.18133 -0.403268 -3.31811 
1 -0.436479 -0.341238 3.58528 
1 -3.02856 -2.08704 2.89785 
1 2.192 -2.02747 1.63287 
1 -1.03448 3.55146 0.473501 
1 0.730379 0.143882 2.60708 
1 -2.32508 -2.87605 2.97794 
1 2.71434 -0.121025 2.39163 
1 -0.498664 1.75655 0.218686 
1 -1.90712 -3.2467 -1.24732 
1 -2.04827 0.743968 -2.97271 
1 3.11648 -2.62086 1.64186 
1 0.504964 -1.71871 -0.232255 
1 -3.47889 -1.26248 3.41149 
1 1.31211 0.818451 3.26395 
1 -3.45838 2.23221 -0.294751 
1 2.99375 1.13007 1.1743 
1 0.806953 0.819436 1.44391 
1 -0.0167021 -2.49324 0.3115 
1 0.237243 -1.58154 3.19716 
1 2.1969 2.25748 -2.89676 
1 3.03995 0.929376 -3.48424 
1 3.70413 -2.50206 -2.18788 
1 2.14111 -1.09333 2.20667 
1 0.822704 0.767159 -2.08871 
1 -1.49251 1.51748 -0.157136 
1 3.70479 -0.586474 2.21661 
1 -2.53341 1.73736 -1.88442 
1 0.310409 -2.22312 -3.38152 
1 -2.74797 3.6384 -1.35285 
1 1.60637 -0.307151 -3.54532 
1 -2.48158 -0.629334 3.39141 
1 2.98138 -1.84663 -2.5943 
1 2.2907 -2.27104 -0.0116771 
1 2.26989 -3.64139 2.93547 
1 1.59065 1.71796 -3.61748 
1 2.16881 -2.59745 -1.016 
1 1.80018 1.36996 -2.51635 
1 -2.10827 3.39686 0.300162 
1 -1.10017 0.518049 0.0556456 
1 3.03597 -1.10463 2.86823 
1 2.75388 1.98691 2.63246 
1 -0.260059 -1.16876 0.458528 
1 -1.6372 -3.32031 -0.228409 
1 -0.109434 0.358786 -2.91345 
1 -0.907532 3.13081 2.37913 
1 -1.13241 -2.60824 2.64642 
1 0.0722233 -2.57513 -0.770794 
1 -1.7304 0.717222 -0.854276 
1 1.95279 -1.12044 1.08398 
1 -0.816646 1.87396 1.25211 
1 -2.52076 3.72815 2.48788 
1 2.31138 2.39677 -0.159167 
1 0.483291 -0.017382 -0.780247 
1 -2.46052 -2.35473 -0.870016 
1 -2.27583 -3.66998 -2.42535 
1 -3.47014 3.13483 1.6531 
1 2.12113 -2.92535 -2.85252 
1 2.17287 1.60387 0.566864 
1 1.5479 3.70137 1.08939 
1 -2.8556 1.64652 0.411191 
1 1.62529 -3.16757 0.133988 
1 -3.42063 2.26736 1.01097 
1 2.60283 -0.128128 3.48652 
1 -0.790306 -0.730725 1.94553 
1 2.98834 -1.56925 -0.485123 
1 0.199216 3.69345 -1.25767 
1 -3.02166 -0.432005 0.0824153 
1 -1.87496 -2.53528 -2.79506 
1 -0.713394 2.87637 3.36083 
1 3.21583 -3.63774 1.11493 
1 2.9759 -0.319 -2.26104 
1 -0.243443 1.06489 -2.11192 
1 -2.82549 -1.14161 2.49378 
1 -3.57068 2.7293 -3.50344 
1 2.36966 -1.17497 -2.06637 
1 3.73599 2.23397 3.05257 
1 1.48409 -2.81359 2.93809 
1 2.90843 3.23501 -1.60866 
1 3.24074 -3.39161 3.3012 
1 -2.52599 2.44915 -1.09238 
1 3.1797 2.87358 -0.586281 
1 -0.116519 2.54304 2.0126 
1 3.5173 -1.09247 -1.81425 
1 2.07214 2.8264 2.62597 
1 -0.450427 -0.958606 -1.67003 
1 -2.29719 3.6229 1.40577 
1 -2.23324 -3.34339 -3.46004 
1 1.30104 1.86345 -0.00738847 
1 -3.37929 1.23418 3.0901 
1 1.52404 2.41802 -0.913292 
1 0.206867 1.67922 1.45963 
1 -2.66904 -2.86489 -1.87129 
1 0.489922 -0.940762 -2.245 
1 -3.01717 3.17845 -0.36727 
1 3.04414 2.86535 -2.88933 
1 1.1823 -2.49766 -1.58072 
1 -2.19476 2.37918 -0.085393 
1 -2.90724 0.341097 3.35755 
1 2.57831 0.6398 -2.49556 
1 2.50052 0.178279 0.804442 
1 2.0935 -2.20978 -2.05027 
1 -3.32697 -0.204616 -1.6247 
1 1.37041 3.56528 3.21808 
1 0.0893254 1.94451 -1.65523 
1 -2.49834 2.77877 2.07538 
1 -0.28847 -1.95453 2.24285 
1 -1.15278 3.63167 1.51691 
1 -1.49837 1.92024 2.63393 
1 0.130565 -1.15933 1.61883 
1 -2.27335 1.00637 2.74091 
1 0.152066 -0.0471374 1.68913 
1 -0.493988 -3.33609 -0.208032 
1 -0.532069 -1.94578 1.13933 
1 -0.744423 -3.10543 -1.27358 
1 0.250424 0.937851 -1.19511 
1 -3.54468 -1.10299 -0.836074 
1 3.16501 -1.5602 1.85692 
1 -3.64457 -0.372446 0.957933 
1 -1.17668 3.69247 -1.91771 
1 0.956609 -0.663048 1.14453 
1 3.058 3.04099 3.32665 
1 -2.5473 1.4664 -0.67894 
1 -0.916852 1.95329 -2.17151 
1 -3.46663 1.71773 -1.27252 
1 1.12983 -0.222721 -1.6954 
1 0.692226 2.86323 -1.75895 
1 2.88569 -0.717357 0.418609 
1 2.82599 1.2605 -1.64359 
1 -2.4743 2.81349 -2.08893 
1 -1.70503 -1.72898 -0.0717673 
1 -1.32615 2.48298 0.527535 
1 3.79639 1.66652 -3.45958 
1 -2.60781 1.97675 2.84623 
1 -2.11493 -0.925912 0.474141 
1 -2.33074 -2.55815 0.21009 
1 0.523974 3.35231 -2.77642 
1 1.2545 2.6668 -3.05637 
1 1.34475 -1.61338 2.7794 
1 0.535551 0.151006 3.67795 
1 -0.942112 -2.69401 -2.23531 
1 2.35425 1.2465 3.28533 
1 3.51736 1.31032 2.20872 
1 2.4583 3.48434 1.63616 
1 -0.0630979 -0.97978 -0.696449 
1 -0.427461 -0.656657 -2.71445 
1 -2.38939 0.657844 1.73174 
1 1.80728 3.22239 -1.52128 
1 -1.51735 2.90504 -2.59827 
1 0.389667 -0.835146 -3.36015 
1 2.08459 -1.17354 3.39808 
1 -0.407433 -3.30712 0.900839 
1 1.87752 -0.196423 1.65329 
1 0.74216 2.85272 -0.342557 
1 0.381576 2.3497 0.586618 
1 -2.65843 -1.33801 -3.30314 
1 3.1625 -2.76309 -3.12406 
1 3.36464 -2.18676 2.75871 
1 2.43334 2.60981 0.941215 
1 -3.24866 0.455997 2.34838 
1 1.71649 3.29745 -0.323602 
1 -3.28733 1.22772 1.399 
1 -2.227 -1.20646 1.51911 
1 -1.56599 1.39455 3.72547 
1 -1.87538 1.79812 -2.70362 
1 3.60528 0.52465 -2.20512 
1 2.00089 1.42248 -0.764938 
1 -0.308748 -3.30181 -3.38221 
1 2.9992 -1.737 -3.72726 
1 -2.61778 1.34581 -3.65081 
1 -0.554271 3.19615 -3.1098 
1 0.354247 0.225692 0.62455 
1 -1.44563 -0.748652 3.60489 
1 1.14208 -2.12452 -2.5833 
1 -3.51534 3.34898 2.71904 
1 -3.30645 0.728105 -3.13454 
1 2.47162 2.25991 -1.33698 
1 -1.32652 -0.6505 -2.17352 
1 1.22361 2.49282 3.19936 
1 1.61406 2.78761 1.64062 
1 3.43576 0.324668 1.66381 
1 1.24248 -2.78691 1.61634 
1 0.251433 1.14611 3.40945 
1 -2.4223 0.0178694 0.860485 
1 3.15362 -2.65232 -0.521582 
1 -3.55677 1.18575 -0.252238 
1 -1.42338 -2.7995 3.63729 
1 -1.28614 -1.74898 1.94657 
1 -3.25193 0.569325 0.538729 
1 0.320931 1.79851 -0.487588 
1 -2.79551 -2.05686 -2.50548 
1 1.55895 0.633758 2.24782 
1 -1.60567 -1.68654 -3.38421 
1 -0.712634 0.699115 3.72129 
1 0.531568 1.28679 0.504746 
1 -0.00454187 2.3995 -2.70913 
1 -1.7467 -3.15008 0.894463 
1 -0.97657 -1.61203 -2.48984 
1 1.56123 -2.12994 0.761839 
1 3.59378 0.659948 -1.11474 
1 2.52102 1.01108 2.21785 
1 3.13994 2.90162 2.26326 
1 2.41543 -2.68776 3.56387 
1 3.22233 -0.32249 -1.12512 
1 3.01883 -3.0445 -1.5255 
1 1.35294 -2.6316 -3.49856 
1 -0.138179 3.73248 1.89463 
1 0.704843 -3.12422 0.72842 
1 -3.10942 3.42006 0.689179 
1 -2.60242 -0.515075 -0.876822 
1 -2.12354 2.30865 -3.62996 
1 -1.8798 -3.12453 2.0187 
1 -3.57428 -3.5205 -2.04648 
1 3.73744 3.72649 -3.2048 
1 2.99349 1.61643 -2.68677 
1 0.40064 -1.6869 -1.37041 
1 1.33849 -1.39202 -1.79565 
1 -0.398031 0.895575 0.992133 
1 0.328886 3.13342 3.59091 
1 -0.103788 0.831088 -0.191569 
1 2.76774 -1.72557 0.771312 
1 -3.48074 2.8203 -1.3429 
1 -0.885888 3.41031 -0.839926 
1 0.586371 2.0205 -3.54179 
1 -3.32249 -1.26047 1.52204 
1 0.807742 1.78545 -2.46284 
1 1.53909 3.74421 2.16493 
1 -1.94711 -0.110512 -0.157638 
1 3.18386 1.92568 0.40419 
1 2.46719 3.55547 0.432509 
1 -2.94203 0.803232 -1.61182 
1 0.309584 3.43637 0.44016 
1 0.544238 -1.7721 0.854229 
1 -0.561057 -1.36333 -3.51371 
1 -0.642158 -2.00605 -1.47765 
1 -1.57725 3.22556 -3.60326 
1 1.11447 1.54111 -1.38717 
1 3.06743 1.69746 -0.65896 
1 1.13442 -1.60495 -3.65343 
1 -2.77642 2.90356 3.27148 
1 1.65533 1.66568 2.64629 
1 0.615924 1.20675 2.42084 
1 -1.19973 -1.27176 -0.927978 
1 -0.449825 2.9205 1.09748 
1 -2.28658 -2.10195 2.12349 
1 1.93021 0.680859 0.0385645 
1 -0.991189 0.305864 -1.99725 
1 1.75371 -0.247702 2.82688 
1 -1.87507 1.61637 0.865923 
1 3.1245 -3.5029 2.21861 
1 0.917486 -0.746001 3.21614 
1 -1.15292 2.3839 -0.61 
1 -0.18674 1.44595 -3.12863 
1 -3.36751 -3.00822 0.526743 
1 3.18442 0.635433 2.95147 
1 1.91031 -0.19644 -2.47946 
1 -2.72754 -3.31707 -0.395879 
1 1.07431 -0.920086 -0.858575 
1 -0.934185 -2.78855 1.6414 
1 -1.76868 -2.24002 -1.75073 
1 -2.01173 -1.39941 -2.40432 
1 2.90645 -3.56956 -2.44618 
1 -2.63415 3.1963 -3.16914 
1 3.49173 0.0509942 -0.10036 
1 -3.18389 -1.82712 -1.54648 
1 0.709557 3.12092 2.48051 
1 3.3108 -3.61441 0.0237542 
1 2.95515 0.916158 0.130357 
1 1.53597 -1.56111 -0.163522 
1 3.40618 2.93312 0.499815 
1 -1.53317 0.587443 1.01078 
1 -1.23454 -1.07764 1.05548 
1 -1.92323 0.826819 -1.92071 
1 -3.67858 -1.26068 0.234976 
1 1.57209 0.0360426 -0.719916 
1 0.163539 -2.75438 -1.81929 
1 -0.451774 2.92462 -1.91328 
1 2.32487 -2.0451 2.71316 
1 -1.54791 -0.293673 -1.14732 
1 -0.643857 0.327879 -0.98535 
1 2.03655 -3.29152 -1.86145 
1 2.07778 -1.54383 -1.07166 
1 0.166281 -2.7045 1.57918 
1 3.60254 -3.7115 -0.96298 
1 -2.88583 2.1565 -2.88442 
1 -1.46513 1.25623 1.82064 
1 3.51656 -1.00261 -2.91843 
1 1.91539 0.912075 1.31454 
1 0.0598784 0.00694036 -1.83612 
1 -1.70594 -0.255805 1.63497 
1 -3.45116 -3.04703 2.62045 
1 -0.823509 0.402654 1.85236 
1 -0.241055 0.472225 2.73164 
1 -1.36696 -2.42153 -0.769142 
1 -0.738239 -2.34873 -3.214 
1 -3.71634 -2.06537 0.945005 
1 2.18546 -2.99814 1.05387 
1 1.72426 -0.559817 0.213066 
1 0.629033 3.10634 1.39676 
1 -0.101619 2.68846 -0.95217 
1 2.57426 0.495637 -0.823507 
1 -3.57352 -2.64166 3.58954 
1 0.616033 -3.05187 -2.78545 
1 -1.07729 -2.5603 0.322232 
1 -0.32269 -3.55285 -2.30406 
1 -1.82348 0.298732 3.54163 
1 -2.28712 -0.479005 -1.86354 
1 -3.44308 -2.77001 -1.15211 
1 1.39831 2.78221 0.560115 
1 -3.56244 -1.92313 -3.17556 
1 -1.95351 3.27201 -0.756375 
2 2.51595 2.60592 -2.14615 
2 3.75405 1.31286 0.630758 
2 1.33713 1.40035 1.85967 
2 -1.81029 0.0859749 -2.39317 
2 2.81689 -1.09673 -1.25705 
2 1.0351 3.35797 -1.03937 
2 1.39427 1.11674 0.601478 
2 0.110574 -0.553219 0.943125 
2 1.22607 -1.27611 0.587815 
2 -1.64107 0.463407 2.184 
2 -1.38548 3.06988 -0.137553 
2 2.58971 0.0413561 -0.0552641 
2 -2.95528 2.60738 0.32915 
2 -1.032 -3.43412 2.26798 
2 -1.35772 2.2835 3.42448 
2 -3.21892 2.26569 -1.98704 
2 -3.43703 -0.22184 -0.741452 
2 -3.18006 0.345531 1.38892 
2 3.24241 1.47767 3.2424 
2 -1.75266 -3.05206 -2.09847 
2 -0.683276 2.30394 2.6625 
2 3.33617 -2.03393 0.150233 
2 -2.5485 1.00051 0.954253 
2 -3.01333 1.32243 2.27219 
2 3.36573 0.388433 0.755675 
2 1.38919 -2.94029 -2.3526 
2 1.30361 3.15926 -2.31605 
2 3.66938 2.21979 -2.78666 
2 1.21074 -1.78155 -0.996717 
2 -1.25811 -0.92837 -3.01297 
2 2.51981 -3.13602 -0.0152381 
2 -1.75779 3.3968 2.13968 
2 1.16581 3.60979 0.29529 
2 1.0563 0.563337 -1.24025 
2 2.77196 -2.85971 2.76259 
2 0.933488 1.65387 3.16622 
2 3.40971 -1.18226 1.03848 
2 3.17229 -0.820251 -3.73272 
2 -0.173758 -2.728 -2.66791 
2 -1.11189 1.25708 0.611707 
2 0.635132 -1.52088 -2.91661 
2 2.80589 -2.67987 -2.30089 
2 -1.55612 -0.256998 0.674539 
2 0.402404 -0.708061 -1.39903 
2 -1.0095 -1.66491 0.446291 
2 -0.733683 2.23616 -1.37108 
2 -2.85169 -0.788379 0.935091 
2 -1.65951 3.14231 1.00702 
2 2.33905 2.98158 -0.861758 
2 -0.993764 -2.02872 3.44891 
2 -1.01059 -3.69861 3.68882 
2 2.47039 0.0113407 -3.11727 
2 2.35603 1.45693 -3.2744 
2 0.686388 2.30097 -1.09295 
2 0.0481755 3.40245 -0.436346 
2 -1.07302 1.16401 -1.75622 
2 1.8003 -3.31759 3.62476 
2 -3.00631 2.12268 3.64025 
2 -0.280699 -2.86405 2.35644 
2 -2.56597 -1.49201 3.31005 
2 3.66902 -1.97437 -0.901004 
2 -2.19382 3.57695 3.31063 
2 -0.207609 2.37472 -3.60422 
2 0.663874 -3.09359 -1.16775 
2 -2.53999 0.166626 -3.35497 
2 1.9748 1.58352 -1.65669 
2 -0.796349 -0.507416 -0.745007 
2 3.73963 0.540279 3.60841 
2 1.50617 0.557766 -2.59908 
2 -2.69772 1.06452 -2.46263 
2 -2.73329 -2.88402 2.13478 
2 3.82541 -1.47338 2.47347 
2 0.86599 -2.37024 0.283275 
2 -3.59901 -1.66072 -2.3518 
2 2.24687 0.477651 2.8817 
2 -1.96404 3.42593 -1.64841 
2 -0.0110547 0.840734 1.85408 
2 -3.06313 -0.326798 2.74142 
2 1.01936 0.0965815 -0.0191167 
2 0.669644 -3.49191 1.60029 
2 3.16479 2.98586 1.35487 
2 -1.3943 -1.43114 -1.74978 
2 -2.32399 0.222127 -1.31463 
2 -1.91153 -0.944805 -0.489917 
2 -2.96686 -0.98981 -1.51303 
2 -0.105519 3.0735 2.76004 
2 0.531147 -1.42911 2.37254 
2 2.10347 2.14485 3.24855 
2 2.44918 2.61897 1.84818 
2 2.33201 -1.32587 0.10159 
2 -2.57641 -3.34773 0.654278 
2 0.811849 -2.29259 3.32371 
2 1.79016 -2.06389 3.42513 
2 3.29024 -0.76037 -0.350473 
2 -3.59855 -0.2813 -2.50218 
2 2.55994 0.359274 1.64841 
2 1.58598 -2.27229 2.24603 
2 2.86894 0.347362 -1.66318 
2 1.03954 0.0349191 1.74477 
2 -3.56973 -3.08711 -0.341698 
