ITEM: TIMESTEP
906
ITEM: NUMBER OF ATOMS
500
ITEM: BOX BOUNDS xy xz yz pp pp pp
-3.7345 3.86894 0.134442
-3.7345 3.7345 0
-3.7345 3.7345 0
ITEM: ATOMS type xu yu zu 
1 0.674522 -2.30034 2.44441 
1 -2.66824 -1.41438 -0.32265 
1 2.07846 -1.88889 -3.18 
1 -0.297088 -0.197704 -0.0590828 
1 1.13261 -2.51042 -0.530591 
1 -1.54684 -3.60807 2.96346 
1 2.15283 3.2996 -2.54041 
1 -1.1446 -0.13648 2.75575 
1 2.23562 -0.305879 -1.48828 
1 -3.36384 -2.23348 1.92632 
1 1.25064 1.84597 1.10158 
1 -1.71658 -2.03623 0.995024 
1 -1.17022 0.0101482 -3.06166 
1 2.08691 2.90283 3.73452 
1 -2.08375 -0.501169 -2.99756 
1 1.00469 0.903415 -0.407363 
1 1.0707 -0.748317 2.16845 
1 -1.19964 0.9165 2.81381 
1 -3.33709 -2.22876 -0.193052 
1 -2.75634 -1.70764 0.710125 
1 -3.46205 1.48746 -2.34203 
1 -2.17654 -1.38561 -1.29633 
1 2.13365 1.8478 1.70128 
1 -2.35574 2.59037 0.99896 
1 -2.54806 -2.31625 -3.62115 
1 1.46188 -3.38687 -0.979329 
1 -1.81663 -1.88831 3.07011 
1 -0.647387 1.45035 -0.954708 
1 0.916596 0.969727 -3.16703 
1 -2.77015 0.164891 -2.46884 
1 3.06868 -2.74481 0.556264 
1 -2.60738 -2.65024 1.25629 
1 -1.14956 -0.80201 0.0218306 
1 3.68356 -0.267296 3.24186 
1 3.35101 -0.0101656 -3.2079 
1 -2.20139 0.834614 0.173293 
1 -2.85916 0.443069 -0.588448 
1 -1.76753 -0.976727 2.50536 
1 -2.23173 -0.0292838 2.57063 
1 2.86324 2.07978 -3.71179 
1 3.01461 -1.97168 -1.49192 
1 -0.457072 -3.56059 2.97906 
1 0.0367304 -1.89132 -2.40392 
1 0.50142 -3.30376 2.48433 
1 0.890073 -0.0691633 -2.76317 
1 3.16713 2.1099 1.55602 
1 2.43003 -0.674482 -0.536786 
1 -2.39701 1.75065 1.77508 
1 2.88266 -0.604915 1.46766 
1 0.6621 -0.712647 0.129003 
1 -1.07264 1.06061 -2.75215 
1 -1.46227 2.7067 -1.56259 
1 -3.02992 -0.976184 -2.38271 
1 -0.687197 -0.164522 0.93676 
1 2.50273 -0.873152 -3.12797 
1 -1.78461 2.87819 2.88506 
1 0.93273 -3.56919 -1.90109 
1 2.18619 -2.96365 2.12078 
1 0.925664 2.16433 2.10049 
1 -0.82579 -1.32679 2.91099 
1 -0.416955 2.82175 0.0193804 
1 0.217811 2.22049 2.96048 
1 1.85426 0.688563 -1.6636 
1 -3.34524 2.15981 2.07976 
1 0.573032 -3.16315 3.53312 
1 -3.11603 -3.56735 3.49653 
1 -1.6233 1.69625 -1.30388 
1 -3.3601 -3.29498 1.59586 
1 -0.24283 -2.52276 3.21441 
1 -0.579694 -1.83976 -0.31404 
1 -3.45119 2.97844 -2.44328 
1 -0.627951 1.74334 3.34855 
1 1.1758 -1.6794 1.70009 
1 1.4326 -1.07455 -2.80166 
1 0.607375 -3.46599 -0.357543 
1 1.34803 -3.70262 -3.19293 
1 -1.49487 2.58032 1.69297 
1 2.50858 -3.70703 -3.44519 
1 1.63392 2.32829 -2.01873 
1 -3.10976 -3.00097 -2.92429 
1 0.0348271 -0.67741 2.62061 
1 -1.29877 -3.4323 -2.94247 
1 1.96905 0.674983 -3.36213 
1 -0.986783 2.20262 -3.23099 
1 3.34837 2.27832 -1.95823 
1 -2.81933 -0.354974 1.75936 
1 -0.448465 1.50402 2.28865 
1 2.49188 -3.63555 -0.73191 
1 1.38595 0.227593 0.781911 
1 -3.16869 -0.402298 -3.31737 
1 -0.425157 -0.343221 3.58417 
1 -3.02719 -2.08801 2.89579 
1 2.19966 -2.02833 1.63055 
1 -1.01125 3.55421 0.478776 
1 0.743074 0.145543 2.60742 
1 -2.327 -2.87659 2.97729 
1 2.72442 -0.1212 2.39116 
1 -0.484491 1.75933 0.218874 
1 -1.90354 -3.25022 -1.24838 
1 -2.03174 0.741945 -2.97034 
1 3.12281 -2.62117 1.6436 
1 0.505106 -1.72074 -0.231969 
1 -3.47231 -1.26524 3.41519 
1 1.32672 0.818348 3.26402 
1 -3.43755 2.23272 -0.297025 
1 3.00698 1.13047 1.1741 
1 0.821103 0.819475 1.4428 
1 -0.0132836 -2.49768 0.306072 
1 0.246331 -1.57948 3.19449 
1 2.21592 2.25777 -2.89402 
1 3.05671 0.930628 -3.48535 
1 3.70721 -2.4995 -2.18425 
1 2.15026 -1.09321 2.20474 
1 0.836116 0.765164 -2.08779 
1 -1.47771 1.51804 -0.157921 
1 3.71444 -0.586003 2.21652 
1 -2.51781 1.7378 -1.88274 
1 0.317017 -2.22022 -3.38303 
1 -2.72751 3.64015 -1.3487 
1 1.61856 -0.307878 -3.54544 
1 -2.4708 -0.633537 3.39052 
1 2.98775 -1.84373 -2.59377 
1 2.29668 -2.27041 -0.00957681 
1 2.27105 -3.64209 2.93245 
1 1.60847 1.71807 -3.61645 
1 2.16683 -2.59407 -1.01395 
1 1.81673 1.36969 -2.51722 
1 -2.08356 3.39468 0.300725 
1 -1.0896 0.516869 0.056111 
1 3.04501 -1.10523 2.86721 
1 2.76926 1.98673 2.63254 
1 -0.253541 -1.17131 0.461775 
1 -1.63553 -3.32401 -0.228651 
1 -0.0977977 0.355473 -2.91053 
1 -0.886354 3.13373 2.38355 
1 -1.12891 -2.60599 2.65125 
1 0.0674346 -2.57765 -0.773926 
1 -1.7216 0.71827 -0.85183 
1 1.95976 -1.12137 1.08333 
1 -0.804751 1.8729 1.25106 
1 -2.49984 3.72822 2.48673 
1 2.32946 2.39715 -0.160156 
1 0.494193 -0.0194505 -0.780229 
1 -2.45451 -2.35715 -0.870185 
1 -2.27847 -3.67029 -2.4253 
1 -3.44964 3.13871 1.65363 
1 2.12299 -2.92607 -2.85146 
1 2.19025 1.60706 0.568596 
1 1.57332 3.7 1.08714 
1 -2.84275 1.64595 0.413609 
1 1.6255 -3.16607 0.13212 
1 -3.40137 2.26798 1.01687 
1 2.6146 -0.129256 3.48611 
1 -0.779795 -0.731373 1.94558 
1 2.99422 -1.56593 -0.481703 
1 0.222875 3.69267 -1.25755 
1 -3.0093 -0.43277 0.0832853 
1 -1.87528 -2.53399 -2.79627 
1 -0.691749 2.87724 3.36461 
1 3.21259 -3.63795 1.11503 
1 2.98784 -0.319831 -2.26202 
1 -0.2292 1.06246 -2.10922 
1 -2.81652 -1.14353 2.49444 
1 -3.55226 2.73048 -3.503 
1 2.37663 -1.17361 -2.06388 
1 3.75208 2.23196 3.05565 
1 1.48813 -2.81338 2.93535 
1 2.92963 3.23729 -1.60533 
1 3.24181 -3.3956 3.29974 
1 -2.50956 2.44916 -1.09045 
1 3.19997 2.87587 -0.582547 
1 -0.0983777 2.54467 2.01452 
1 3.52513 -1.09315 -1.81226 
1 2.09057 2.82704 2.62655 
1 -0.435135 -0.965701 -1.67619 
1 -2.27424 3.62683 1.40629 
1 -2.23755 -3.34417 -3.45837 
1 1.31828 1.86156 -0.00847267 
1 -3.36355 1.23259 3.09272 
1 1.54121 2.4187 -0.914314 
1 0.220641 1.68059 1.45916 
1 -2.66729 -2.86587 -1.8696 
1 0.501741 -0.939624 -2.24715 
1 -2.99895 3.18064 -0.364886 
1 3.06146 2.86663 -2.89116 
1 1.18545 -2.50019 -1.58434 
1 -2.18337 2.37668 -0.0826915 
1 -2.89401 0.338227 3.35777 
1 2.59204 0.638406 -2.49634 
1 2.51423 0.181768 0.802686 
1 2.09943 -2.20874 -2.04917 
1 -3.3155 -0.204845 -1.62485 
1 1.39326 3.5651 3.21414 
1 0.106271 1.94305 -1.65514 
1 -2.48062 2.77878 2.07521 
1 -0.282095 -1.95296 2.24025 
1 -1.12864 3.63239 1.52001 
1 -1.48233 1.92156 2.63821 
1 0.140293 -1.15852 1.61467 
1 -2.2602 1.00679 2.7421 
1 0.163348 -0.0461855 1.68805 
1 -0.497379 -3.33923 -0.211808 
1 -0.527737 -1.95061 1.13789 
1 -0.744692 -3.10964 -1.28288 
1 0.265144 0.937778 -1.19266 
1 -3.53564 -1.10183 -0.834794 
1 3.17248 -1.55861 1.85347 
1 -3.6335 -0.371607 0.958253 
1 -1.15863 3.68812 -1.92616 
1 0.967153 -0.656645 1.14321 
1 3.07569 3.03868 3.32627 
1 -2.53407 1.46694 -0.677508 
1 -0.9 1.95046 -2.16858 
1 -3.45167 1.71839 -1.27339 
1 1.14243 -0.224756 -1.69403 
1 0.711495 2.86131 -1.75787 
1 2.89384 -0.716453 0.417996 
1 2.84123 1.26055 -1.64385 
1 -2.46065 2.81568 -2.08548 
1 -1.69576 -1.72842 -0.0778657 
1 -1.31071 2.48717 0.524333 
1 3.81353 1.66775 -3.45815 
1 -2.59287 1.97782 2.8466 
1 -2.10404 -0.927502 0.4737 
1 -2.32281 -2.55579 0.208926 
1 0.544585 3.35244 -2.7749 
1 1.27292 2.66525 -3.05583 
1 1.35198 -1.61253 2.77762 
1 0.546145 0.151811 3.67811 
1 -0.942329 -2.69333 -2.2413 
1 2.3696 1.24567 3.28477 
1 3.53213 1.31236 2.21247 
1 2.47989 3.48224 1.63823 
1 -0.0578589 -0.978376 -0.698466 
1 -0.418196 -0.66031 -2.71711 
1 -2.37785 0.657659 1.73309 
1 1.83009 3.221 -1.52303 
1 -1.50799 2.89926 -2.60132 
1 0.400055 -0.835231 -3.3609 
1 2.0938 -1.17526 3.39727 
1 -0.406269 -3.30379 0.901394 
1 1.88725 -0.1953 1.64956 
1 0.761691 2.85144 -0.342194 
1 0.398797 2.35011 0.584501 
1 -2.65069 -1.33853 -3.29995 
1 3.16439 -2.76208 -3.12249 
1 3.36749 -2.18609 2.75119 
1 2.4535 2.61184 0.94156 
1 -3.23675 0.456546 2.34937 
1 1.73577 3.29708 -0.32355 
1 -3.27698 1.22633 1.39978 
1 -2.21785 -1.20553 1.51872 
1 -1.54952 1.39349 3.72754 
1 -1.85914 1.79503 -2.70139 
1 3.61821 0.525234 -2.20506 
1 2.01841 1.42563 -0.766425 
1 -0.304047 -3.30938 -3.3805 
1 3.00853 -1.74075 -3.72934 
1 -2.6015 1.34478 -3.64829 
1 -0.538707 3.19349 -3.10303 
1 0.367602 0.225846 0.624042 
1 -1.43481 -0.748626 3.60484 
1 1.15152 -2.12625 -2.58593 
1 -3.49361 3.34541 2.71999 
1 -3.29347 0.727528 -3.13489 
1 2.48887 2.26181 -1.33708 
1 -1.31479 -0.654721 -2.17137 
1 1.24133 2.49309 3.19993 
1 1.63325 2.78769 1.64111 
1 3.44742 0.325706 1.66521 
1 1.24653 -2.78689 1.61415 
1 0.266811 1.14706 3.40822 
1 -2.40944 0.0169275 0.861908 
1 3.15662 -2.65067 -0.52097 
1 -3.54081 1.18667 -0.252495 
1 -1.43728 -2.78708 3.63944 
1 -1.28105 -1.75024 1.94592 
1 -3.23711 0.569236 0.538739 
1 0.337281 1.79781 -0.485629 
1 -2.78947 -2.05538 -2.50094 
1 1.5731 0.633939 2.24768 
1 -1.59871 -1.68763 -3.38678 
1 -0.696554 0.698119 3.72193 
1 0.545954 1.28715 0.505059 
1 0.0149093 2.39801 -2.70823 
1 -1.74228 -3.14671 0.897783 
1 -0.967033 -1.61542 -2.49495 
1 1.56571 -2.13452 0.763141 
1 3.60844 0.660232 -1.11397 
1 2.53601 1.01019 2.21714 
1 3.16119 2.89872 2.26357 
1 2.41965 -2.69037 3.56201 
1 3.23428 -0.320952 -1.12451 
1 3.01837 -3.04122 -1.52476 
1 1.35808 -2.63193 -3.50111 
1 -0.11526 3.73357 1.89633 
1 0.706035 -3.12613 0.729464 
1 -3.08552 3.42384 0.690604 
1 -2.59127 -0.515373 -0.876882 
1 -2.10476 2.3077 -3.62689 
1 -1.87719 -3.12425 2.02211 
1 -3.57288 -3.51896 -2.04656 
1 3.76003 3.72792 -3.20404 
1 3.01088 1.6143 -2.68571 
1 0.407455 -1.68966 -1.36844 
1 1.34548 -1.39502 -1.79535 
1 -0.383947 0.895592 0.992298 
1 0.349907 3.13292 3.59378 
1 -0.0926482 0.831734 -0.189543 
1 2.77565 -1.7225 0.768951 
1 -3.46319 2.82148 -1.34295 
1 -0.866118 3.40927 -0.849822 
1 0.604551 2.01905 -3.54102 
1 -3.31339 -1.25934 1.52207 
1 0.825291 1.78323 -2.46164 
1 1.56066 3.74565 2.1628 
1 -1.93648 -0.110932 -0.157165 
1 3.20252 1.92825 0.404098 
1 2.49057 3.55331 0.427398 
1 -2.92776 0.803547 -1.61082 
1 0.328339 3.4367 0.439091 
1 0.547801 -1.78157 0.855494 
1 -0.551829 -1.36653 -3.5162 
1 -0.638519 -2.00903 -1.48075 
1 -1.55866 3.22536 -3.60391 
1 1.13072 1.53928 -1.38607 
1 3.08478 1.69973 -0.659353 
1 1.14284 -1.60462 -3.65469 
1 -2.75467 2.90488 3.27546 
1 1.67124 1.66574 2.64569 
1 0.630503 1.20819 2.41965 
1 -1.18799 -1.26577 -0.932922 
1 -0.430563 2.91633 1.09695 
1 -2.2829 -2.10213 2.12187 
1 1.9478 0.686804 0.0352056 
1 -0.977383 0.30255 -1.9996 
1 1.76485 -0.248083 2.8266 
1 -1.8595 1.61909 0.864567 
1 3.12625 -3.50614 2.21677 
1 0.927758 -0.744614 3.21565 
1 -1.13961 2.38629 -0.609871 
1 -0.167773 1.44347 -3.12683 
1 -3.3614 -3.0053 0.524659 
1 3.19885 0.633188 2.95086 
1 1.92202 -0.197265 -2.47933 
1 -2.72476 -3.31713 -0.391421 
1 1.08488 -0.922037 -0.856104 
1 -0.930276 -2.78906 1.64661 
1 -1.76623 -2.24356 -1.75043 
1 -2.0018 -1.40107 -2.40528 
1 2.90686 -3.56999 -2.44489 
1 -2.61668 3.19668 -3.16632 
1 3.50615 0.0514846 -0.0987636 
1 -3.17673 -1.82722 -1.54297 
1 0.729378 3.12268 2.47943 
1 3.31447 -3.61317 0.0257173 
1 2.9722 0.918922 0.129746 
1 1.53618 -1.56889 -0.159877 
1 3.43121 2.93395 0.501194 
1 -1.52096 0.589173 1.01235 
1 -1.22492 -1.07681 1.05644 
1 -1.90836 0.825195 -1.91884 
1 -3.66989 -1.25934 0.234779 
1 1.58461 0.0358757 -0.718376 
1 0.1659 -2.75558 -1.82072 
1 -0.432288 2.92328 -1.91281 
1 2.32906 -2.04689 2.71113 
1 -1.53774 -0.288675 -1.14898 
1 -0.633536 0.332875 -0.98573 
1 2.03753 -3.29084 -1.85967 
1 2.08339 -1.53763 -1.06637 
1 0.170228 -2.70603 1.58028 
1 3.59999 -3.7096 -0.962839 
1 -2.8687 2.15765 -2.88242 
1 -1.45488 1.25848 1.82305 
1 3.52856 -1.00317 -2.91996 
1 1.92776 0.91289 1.31353 
1 0.0724504 0.00494159 -1.83284 
1 -1.69429 -0.254563 1.6361 
1 -3.45164 -3.0478 2.61727 
1 -0.811696 0.404873 1.85303 
1 -0.228232 0.473042 2.73157 
1 -1.35982 -2.42653 -0.770195 
1 -0.731726 -2.35363 -3.22168 
1 -3.70956 -2.06342 0.944969 
1 2.19096 -3.00175 1.05089 
1 1.72656 -0.567197 0.210617 
1 0.64897 3.10703 1.3953 
1 -0.0820023 2.68751 -0.951986 
1 2.58816 0.49814 -0.825406 
1 -3.57902 -2.63864 3.58502 
1 0.61804 -3.05081 -2.78634 
1 -1.07438 -2.56117 0.319611 
1 -0.324097 -3.55304 -2.30223 
1 -1.81149 0.298494 3.5424 
1 -2.27606 -0.481203 -1.86369 
1 -3.44092 -2.76978 -1.15146 
1 1.41748 2.78061 0.559713 
1 -3.55501 -1.92713 -3.17303 
1 -1.93296 3.26886 -0.755453 
2 2.53197 2.61275 -2.14401 
2 3.76632 1.31021 0.630284 
2 1.35204 1.40047 1.85927 
2 -1.79728 0.0830883 -2.39117 
2 2.82403 -1.09329 -1.25491 
2 1.05844 3.35506 -1.03912 
2 1.41037 1.12067 0.597394 
2 0.12053 -0.552413 0.939984 
2 1.22887 -1.28077 0.593201 
2 -1.62921 0.464539 2.18553 
2 -1.35534 3.08019 -0.14052 
2 2.60655 0.0470834 -0.0564027 
2 -2.9421 2.60892 0.332633 
2 -1.03161 -3.43313 2.27221 
2 -1.33913 2.28836 3.42701 
2 -3.20338 2.26598 -1.9872 
2 -3.4247 -0.220471 -0.741504 
2 -3.16823 0.344806 1.38902 
2 3.25762 1.47626 3.2407 
2 -1.75259 -3.05311 -2.10096 
2 -0.666139 2.30561 2.66446 
2 3.34468 -2.03336 0.149973 
2 -2.53448 1.00283 0.956664 
2 -3.00032 1.32341 2.27319 
2 3.37994 0.390058 0.756447 
2 1.39045 -2.9446 -2.35417 
2 1.32398 3.15602 -2.31476 
2 3.68577 2.2206 -2.78622 
2 1.21927 -1.78425 -0.997609 
2 -1.25081 -0.930139 -3.01281 
2 2.52291 -3.13506 -0.00934256 
2 -1.73628 3.39861 2.13952 
2 1.18619 3.60945 0.295671 
2 1.06992 0.562215 -1.23896 
2 2.77643 -2.86114 2.75998 
2 0.950118 1.65407 3.16616 
2 3.41874 -1.18055 1.03781 
2 3.18166 -0.822839 -3.7336 
2 -0.171531 -2.72761 -2.668 
2 -1.09733 1.25628 0.610168 
2 0.645612 -1.52066 -2.91689 
2 2.80981 -2.67855 -2.30166 
2 -1.54526 -0.256813 0.674648 
2 0.41489 -0.712404 -1.39925 
2 -1.00532 -1.66551 0.447086 
2 -0.716391 2.23858 -1.36969 
2 -2.84035 -0.787679 0.936085 
2 -1.63764 3.14412 1.01082 
2 2.3607 2.98455 -0.861042 
2 -0.990019 -2.02894 3.44354 
2 -1.00671 -3.70593 3.6905 
2 2.48247 0.00814983 -3.11695 
2 2.37243 1.45576 -3.27264 
2 0.703953 2.29805 -1.09232 
2 0.069912 3.40132 -0.437481 
2 -1.05779 1.16025 -1.75238 
2 1.80179 -3.31892 3.62116 
2 -2.98779 2.12323 3.6424 
2 -0.279892 -2.86313 2.35582 
2 -2.56709 -1.49553 3.31368 
2 3.6728 -1.97227 -0.900458 
2 -2.17342 3.5806 3.30927 
2 -0.189792 2.37122 -3.60204 
2 0.664762 -3.09311 -1.16778 
2 -2.52885 0.169603 -3.35257 
2 1.99132 1.58411 -1.65723 
2 -0.788886 -0.50057 -0.741367 
2 3.75352 0.537108 3.60816 
2 1.52008 0.558166 -2.59965 
2 -2.68081 1.06497 -2.46159 
2 -2.73194 -2.88435 2.13284 
2 3.83308 -1.47341 2.47113 
2 0.871307 -2.37406 0.281683 
2 -3.59141 -1.65971 -2.3508 
2 2.25867 0.477416 2.88147 
2 -1.94517 3.42555 -1.64786 
2 0.00267376 0.841724 1.85399 
2 -3.05155 -0.327391 2.73995 
2 1.02605 0.0887171 -0.0216183 
2 0.673351 -3.49259 1.60208 
2 3.18639 2.98432 1.35567 
2 -1.3836 -1.43924 -1.75224 
2 -2.31195 0.221015 -1.31516 
2 -1.90087 -0.944287 -0.491354 
2 -2.95662 -0.990707 -1.51125 
2 -0.084282 3.07335 2.76326 
2 0.539215 -1.42744 2.36938 
2 2.11966 2.14489 3.2485 
2 2.46857 2.61738 1.84961 
2 2.33271 -1.32218 0.101546 
2 -2.56985 -3.34565 0.650346 
2 0.817107 -2.29227 3.32168 
2 1.79602 -2.06502 3.42314 
2 3.30004 -0.758055 -0.34997 
2 -3.58697 -0.280435 -2.50308 
2 2.57129 0.358232 1.64762 
2 1.59131 -2.27191 2.24296 
2 2.88317 0.347442 -1.66415 
2 1.05047 0.0366017 1.7481 
2 -3.56708 -3.0864 -0.341824 
