ITEM: TIMESTEP
880
ITEM: NUMBER OF ATOMS
500
ITEM: BOX BOUNDS xy xz yz pp pp pp
-3.7345 3.86894 0.134442
-3.7345 3.7345 0
-3.7345 3.7345 0
ITEM: ATOMS type xu yu zu 
1 -2.78969 -2.05583 -2.5023 
1 -3.10828 -3.00244 -2.92413 
1 -2.54638 -2.31629 -3.62071 
1 -2.23585 -3.3439 -3.45889 
1 -1.87404 -2.53442 -2.79595 
1 -0.941357 -2.69348 -2.23943 
2 -1.75201 -3.05273 -2.10015 
1 -0.732652 -2.35192 -3.21917 
1 0.316212 -2.22115 -3.38245 
1 -0.305307 -3.3067 -3.38112 
2 -0.171272 -2.72746 -2.66802 
1 0.61784 -3.05135 -2.78619 
1 -3.16962 -0.402618 -3.31757 
1 -3.03008 -0.976191 -2.38348 
1 -2.65082 -1.33833 -3.30099 
1 -2.27652 -0.48038 -1.86368 
1 -2.08411 -0.500905 -2.9976 
1 -2.00283 -1.40028 -2.40501 
1 -0.968425 -1.61433 -2.4934 
1 -1.59918 -1.68735 -3.38611 
2 -1.25083 -0.929602 -3.01278 
1 -1.31554 -0.653229 -2.17194 
1 0.0348463 -1.89109 -2.404 
1 0.399466 -0.835051 -3.36073 
2 0.644223 -1.52059 -2.9169 
1 -0.418277 -0.659211 -2.71629 
1 0.500779 -0.939809 -2.24648 
1 -0.552551 -1.36548 -3.5154 
1 -2.66713 -2.86557 -1.87002 
1 -3.44074 -2.76979 -1.15159 
1 -2.72542 -3.31719 -0.392961 
1 -2.45504 -2.35634 -0.870064 
1 -3.33795 -2.229 -0.192325 
2 -3.5674 -3.08642 -0.34163 
1 -1.63578 -3.32297 -0.228534 
1 -1.76568 -2.24236 -1.75053 
1 -1.90428 -3.24917 -1.24804 
1 -1.36064 -2.42534 -0.769871 
1 -0.74356 -3.10825 -1.28023 
1 -0.638075 -2.00808 -1.47979 
1 0.166449 -2.75481 -1.82048 
1 0.0700999 -2.57672 -0.773022 
1 -0.496017 -3.33808 -0.210754 
1 0.607939 -3.46564 -0.357506 
2 0.665135 -3.09316 -1.16783 
1 -3.17705 -1.82715 -1.54401 
1 -3.53599 -1.10213 -0.835202 
1 -3.31582 -0.204712 -1.62486 
2 -2.95727 -0.990339 -1.51185 
1 -2.59175 -0.515199 -0.876878 
1 -2.66887 -1.4142 -0.322438 
2 -3.42517 -0.220822 -0.741531 
1 -2.17756 -1.38501 -1.29651 
2 -1.38488 -1.43657 -1.75147 
1 -1.53774 -0.29021 -1.14844 
2 -1.90154 -0.944465 -0.490991 
1 -1.18921 -1.26756 -0.931397 
2 -0.788325 -0.502507 -0.742283 
1 -0.578813 -1.84039 -0.314031 
1 -0.437197 -0.963596 -1.67445 
1 0.407283 -1.6887 -1.36916 
1 -0.0570947 -0.978714 -0.697879 
2 0.413894 -0.711046 -1.3991 
2 -3.59177 -1.66003 -2.35103 
1 -1.93643 -0.110888 -0.157274 
2 -3.58741 -0.280667 -2.5028 
1 -1.29826 -3.43323 -2.94051 
1 -3.57314 -3.51947 -2.0465 
1 -2.27771 -3.6701 -2.42532 
1 -0.297255 -0.19767 -0.0596298 
1 0.506989 -1.71988 -0.232231 
1 -0.323367 -3.55276 -2.30276 
1 0.889438 -0.0690224 -2.76298 
1 0.932936 -3.56859 -1.901 
1 -3.55555 -1.92587 -3.17379 
1 1.14184 -0.224096 -1.6945 
1 1.14207 -1.60474 -3.65434 
1 1.14939 -2.12573 -2.58481 
1 1.08428 -0.921517 -0.856946 
1 1.18599 -2.49952 -1.5831 
2 1.21846 -1.78348 -0.997488 
1 1.13552 -2.50942 -0.529049 
1 1.35733 -2.63184 -3.50001 
1 1.43127 -1.07407 -2.80173 
1 1.34557 -1.39402 -1.79553 
1 1.34888 -3.70265 -3.1908 
2 1.39073 -2.94321 -2.35402 
1 1.46216 -3.38636 -0.979066 
1 1.61793 -0.307684 -3.5454 
1 1.53828 -1.56666 -0.16135 
1 0.494447 -0.0188499 -0.779865 
1 -1.17031 0.010632 -3.06154 
1 -1.69678 -1.72875 -0.0761881 
1 1.92164 -0.197175 -2.47935 
1 -3.35937 -3.2963 1.59736 
1 -3.3627 -3.00609 0.525383 
1 -2.60759 -2.6506 1.25675 
2 -2.5719 -3.34671 0.651659 
1 -2.32435 -2.55666 0.209269 
1 -1.74336 -3.14781 0.896723 
1 -1.07415 -2.56096 0.32052 
1 -0.930569 -2.78894 1.64487 
1 -1.71687 -2.03717 0.995913 
1 -0.013036 -2.49614 0.307741 
1 0.17009 -2.70552 1.57998 
1 -0.40595 -3.30473 0.90119 
2 0.672468 -3.4924 1.60142 
1 0.706644 -3.1251 0.729049 
1 0.548616 -1.77811 0.854999 
2 0.871042 -2.37229 0.282199 
1 -2.75663 -1.70824 0.710273 
2 -2.84109 -0.788006 0.935704 
1 -3.31389 -1.25978 1.52212 
1 -2.21837 -1.2058 1.51882 
1 -2.81971 -0.354937 1.7586 
1 -2.10477 -0.927144 0.473869 
2 -1.00481 -1.66533 0.446826 
1 -1.69472 -0.254891 1.63574 
1 -1.22537 -1.0771 1.05621 
2 -1.54542 -0.256897 0.674662 
1 -0.527361 -1.9491 1.13824 
1 -0.687093 -0.164712 0.936365 
1 -0.253193 -1.17045 0.460625 
1 0.139285 -1.15874 1.61601 
2 0.120354 -0.55253 0.940785 
1 0.663574 -0.710753 0.128409 
1 -3.63369 -0.371949 0.958258 
1 0.163336 -0.0464726 1.6882 
1 -3.01005 -0.432473 0.0830167 
1 -3.67022 -1.25972 0.2348 
1 1.17513 -1.68014 1.70115 
1 0.966496 -0.659467 1.1435 
2 1.23057 -1.27926 0.59096 
1 1.24623 -2.78689 1.61497 
1 1.56598 -2.13273 0.76278 
1 -1.15007 -0.801781 0.0219141 
1 1.62624 -3.16655 0.132564 
1 1.72883 -0.564872 0.211296 
1 1.88777 -0.195889 1.6511 
1 -3.46232 1.48757 -2.34192 
1 -3.29355 0.727742 -3.13476 
2 -2.68158 1.06491 -2.46203 
1 -2.77063 0.164685 -2.46929 
1 -2.03266 0.742502 -2.97099 
1 -2.51742 1.73768 -1.88339 
1 -2.85978 0.443194 -0.588797 
1 -2.92786 0.803514 -1.6111 
1 -2.53333 1.46677 -0.678027 
2 -2.31199 0.22142 -1.31499 
1 -3.45115 1.71828 -1.27297 
1 -3.54133 1.18636 -0.252333 
1 -2.60182 1.34505 -3.64893 
1 -1.90862 0.825752 -1.91941 
1 -1.85902 1.79606 -2.70227 
2 -1.79764 0.084023 -2.3917 
1 -1.72016 0.717964 -0.852595 
1 -1.62295 1.69656 -1.30429 
1 -1.47748 1.51798 -0.157735 
1 -1.07348 1.06098 -2.75187 
2 -1.05784 1.16163 -1.75361 
1 -0.977697 0.303769 -1.99872 
1 -0.64762 1.4493 -0.955088 
1 -0.633005 0.331411 -0.985462 
1 -0.228967 1.06337 -2.11011 
1 -0.168904 1.44427 -3.12748 
2 -2.52893 0.168905 -3.3533 
1 -0.0919073 0.831567 -0.190122 
1 -0.0976021 0.356491 -2.91132 
1 0.264948 0.937579 -1.19336 
1 0.337342 1.79786 -0.486599 
1 0.824822 1.78397 -2.46186 
1 0.836291 0.765827 -2.088 
1 0.916152 0.97003 -3.16681 
1 1.00518 0.904504 -0.408342 
2 1.06971 0.562564 -1.23925 
2 1.02869 0.0914212 -0.0203583 
1 1.13047 1.53988 -1.38616 
2 1.51986 0.557938 -2.59937 
1 1.58426 0.0357679 -0.719144 
1 1.60807 1.7181 -3.61674 
1 0.0722399 0.00567051 -1.83352 
1 1.81622 1.36972 -2.51675 
1 1.85428 0.68814 -1.66336 
2 -3.16807 0.345124 1.38902 
2 -2.53435 1.00211 0.955836 
1 -3.27536 1.22684 1.3996 
1 -2.84154 1.64604 0.4127 
1 -3.23772 0.569346 0.538806 
1 -2.3772 0.657736 1.73259 
1 -2.39451 1.75054 1.77653 
1 -2.20143 0.834309 0.172596 
1 -1.85919 1.61819 0.86498 
1 -1.52063 0.588637 1.01178 
1 -1.45317 1.25775 1.82223 
2 -1.09709 1.25658 0.610461 
1 -2.40993 0.0172071 0.861383 
1 -0.483807 1.7587 0.218447 
1 -1.08901 0.517284 0.0558364 
1 -0.384011 0.895564 0.992154 
1 0.221398 1.68025 1.45924 
1 0.367365 0.225939 0.624017 
1 0.546023 1.28722 0.5049 
1 0.820923 0.819634 1.44312 
2 1.05075 0.0358764 1.74599 
1 1.38514 0.22583 0.785351 
2 1.40958 1.1188 0.59881 
1 1.92844 0.912584 1.31383 
1 1.94615 0.683926 0.0365877 
1 1.96821 0.675316 -3.36185 
2 1.99092 1.58384 -1.65673 
1 1.95998 -1.12099 1.08361 
1 2.01756 1.42439 -0.765485 
1 2.0772 -1.88818 -3.1788 
1 2.03748 -3.291 -1.86045 
1 2.08377 -1.53953 -1.06823 
1 2.09897 -2.20911 -2.04979 
1 2.12326 -2.92609 -2.85197 
1 2.1895 1.60553 0.567494 
1 2.16851 -2.59508 -1.01471 
1 2.23486 -0.306892 -1.48835 
1 2.18984 -3.00051 1.05191 
1 2.1988 -2.02803 1.63148 
1 2.29619 -2.27075 -0.0102872 
2 2.3722 1.45604 -3.27312 
2 2.33457 -1.32334 0.101743 
1 2.37699 -1.17415 -2.06472 
1 2.42974 -0.676455 -0.537312 
2 2.48199 0.00910393 -3.11715 
1 2.51368 0.18032 0.803489 
1 -3.71024 -2.06395 0.944992 
2 3.67322 -1.97279 -0.90068 
1 3.16496 -2.76254 -3.12288 
2 2.80954 -2.67906 -2.30142 
2 2.52268 -3.13546 -0.0112014 
2 3.18124 -0.822115 -3.73326 
1 2.49215 -3.63655 -0.733168 
1 2.50199 -0.872225 -3.12794 
1 3.52731 -1.00301 -2.91942 
1 3.00752 -1.73962 -3.72852 
1 3.15661 -2.65121 -0.521207 
1 3.52519 -1.09298 -1.81286 
1 3.23381 -0.32135 -1.12471 
2 3.2998 -0.758758 -0.350154 
2 2.82437 -1.09431 -1.25558 
1 3.01545 -1.97262 -1.49284 
1 2.90691 -3.56992 -2.44521 
1 3.01909 -3.04232 -1.52497 
1 2.5089 -3.7072 -3.44485 
1 2.98734 -0.319601 -2.26166 
1 2.99434 -1.56698 -0.482725 
1 2.98753 -1.84478 -2.59401 
1 3.70739 -2.50029 -2.18527 
1 3.60089 -3.71017 -0.96279 
2 3.41831 -1.18129 1.03796 
2 3.34353 -2.03349 0.150123 
1 3.3135 -3.61356 0.0251532 
1 3.21381 -3.63784 1.11503 
1 2.88274 -0.605926 1.46813 
1 2.7748 -1.72361 0.76978 
1 3.12177 -2.62111 1.64297 
1 2.89422 -0.716901 0.41819 
1 3.06749 -2.74554 0.555756 
2 2.60504 0.0451221 -0.0558455 
1 3.05576 0.930109 -3.48507 
1 3.0106 1.61464 -2.68599 
1 3.61803 0.525124 -2.20507 
1 3.50529 0.0513648 -0.0992845 
1 2.84093 1.26044 -1.64374 
2 2.88242 0.347398 -1.66382 
1 3.60797 0.660277 -1.11427 
1 2.58773 0.497202 -0.824691 
1 3.08431 1.69888 -0.659173 
1 2.59166 0.638672 -2.4961 
1 3.81314 1.66733 -3.45864 
1 3.35068 -0.0101762 -3.20767 
1 3.44761 0.325277 1.66471 
2 3.76743 1.31135 0.630531 
1 2.97095 0.917891 0.129899 
1 3.00744 1.13029 1.17414 
2 3.37937 0.38954 0.756165 
2 2.57166 0.358522 1.64807 
1 -2.86854 2.15725 -2.8832 
1 -2.61565 3.19654 -3.16724 
1 -2.45867 2.81493 -2.08675 
2 -3.20255 2.26586 -1.98692 
1 -2.99818 3.17982 -0.365692 
1 -3.46279 2.82114 -1.3429 
1 -2.50921 2.44913 -1.09123 
1 -3.43877 2.23257 -0.295987 
1 -1.93287 3.26968 -0.755821 
1 -3.44959 2.97796 -2.44343 
1 -2.10498 2.30806 -3.62806 
1 -2.18129 2.37742 -0.0837744 
1 -3.55211 2.73003 -3.50311 
1 -2.72699 3.63935 -1.35012 
2 -1.9443 3.42569 -1.64814 
2 -1.3581 3.07736 -0.139729 
1 -1.55793 3.22549 -3.60382 
1 -1.5045 2.90132 -2.6004 
1 -1.46154 2.70733 -1.56182 
1 -1.13809 2.38571 -0.609954 
1 -0.986993 2.20384 -3.23202 
1 -0.865665 3.40978 -0.847039 
1 -0.899954 1.95149 -2.1696 
2 -0.716235 2.23786 -1.37016 
1 -0.536935 3.19448 -3.10532 
1 -0.432071 2.92384 -1.91287 
2 -0.189611 2.37253 -3.60282 
1 -0.0822051 2.68785 -0.951881 
1 0.0143772 2.39843 -2.70849 
1 0.10625 1.94357 -1.65498 
2 0.0698337 3.4019 -0.437123 
1 0.222601 3.69286 -1.25767 
1 0.544676 3.35222 -2.77534 
1 0.604278 2.01965 -3.54124 
1 0.711592 2.86192 -1.75833 
2 0.704131 2.29921 -1.09249 
1 0.761765 2.85207 -0.342391 
2 1.05786 3.35604 -1.03936 
1 -1.15726 3.6896 -1.9235 
1 1.27328 2.66554 -3.05561 
2 1.32416 3.15706 -2.31508 
1 1.31785 1.86232 -0.00820041 
1 1.54163 2.41852 -0.913926 
1 1.63429 2.32862 -2.01871 
1 1.73646 3.29726 -0.323469 
1 1.82949 3.22144 -1.52247 
1 -2.35525 2.58906 0.998509 
1 -3.44971 3.13721 1.6531 
1 -3.08621 3.42271 0.690028 
2 -2.94012 2.60848 0.331566 
1 -3.40172 2.26756 1.01476 
1 -2.27451 3.6254 1.40615 
1 -2.08458 3.39522 0.300478 
2 -1.63798 3.14358 1.00961 
1 -1.49511 2.57934 1.69163 
1 -1.30978 2.486 0.525151 
1 -1.12931 3.63221 1.51902 
1 -1.01164 3.55359 0.477288 
1 -0.803157 1.87329 1.2511 
1 -0.430318 2.91772 1.09712 
1 -0.416039 2.82124 0.0200975 
1 0.329396 3.43674 0.439484 
1 0.399069 2.35012 0.585061 
1 0.649187 3.10674 1.39582 
2 1.18683 3.60979 0.295546 
1 1.25124 1.84575 1.10149 
1 1.41751 2.78121 0.559869 
1 1.57227 3.70046 1.08794 
1 1.63343 2.78769 1.64101 
1 2.15375 3.29797 -2.53967 
1 2.13383 1.84787 1.7014 
1 2.21577 2.25746 -2.89464 
2 2.3601 2.98354 -0.861287 
1 2.32948 2.39698 -0.159812 
1 2.45299 2.61094 0.94134 
1 2.47994 3.48299 1.63752 
1 2.49019 3.554 0.429228 
1 2.48904 2.26105 -1.33691 
2 2.53283 2.61063 -2.14444 
1 2.86372 2.08038 -3.71186 
1 3.06231 2.86616 -2.89039 
1 3.19963 2.87522 -0.583705 
1 3.34897 2.27779 -1.95798 
1 2.92953 3.23656 -1.60629 
2 3.68624 2.22023 -2.78629 
1 3.76011 3.72737 -3.20411 
1 3.20173 1.92737 0.404237 
2 3.18554 2.98488 1.35525 
1 3.4298 2.93369 0.500796 
1 3.16743 2.11049 1.55601 
1 -0.811426 0.404165 1.85286 
2 0.00270709 0.841448 1.85395 
1 -0.780451 -0.731077 1.94573 
1 -3.36424 -2.23392 1.92685 
2 -2.73157 -2.8843 2.13349 
1 -3.45083 -3.04749 2.61829 
1 -2.28256 -2.10213 2.12231 
1 -2.3255 -2.87639 2.97754 
1 -3.02597 -2.08767 2.89634 
1 -1.87748 -3.1243 2.02093 
1 -1.12887 -2.60692 2.64965 
2 -1.03141 -3.43353 2.27078 
2 -0.989696 -2.02903 3.44523 
1 -1.81492 -1.8898 3.0707 
1 0.50159 -3.3047 2.48385 
1 -0.244453 -2.52348 3.21544 
2 -0.279241 -2.86354 2.35602 
1 0.673728 -2.30105 2.44559 
1 -0.457774 -3.56097 2.97843 
2 0.81671 -2.29242 3.3225 
1 -3.11508 -3.56816 3.49688 
1 -2.81681 -1.1428 2.49418 
1 -2.47138 -0.63207 3.39083 
2 -3.05204 -0.327176 2.7404 
1 -3.47195 -1.26445 3.414 
2 -2.56448 -1.49439 3.3125 
1 -1.14506 -0.136437 2.75587 
1 -1.28072 -1.74992 1.94612 
1 -1.43543 -0.748665 3.60482 
1 -1.76789 -0.977393 2.50613 
1 -0.825976 -1.32725 2.91157 
1 -0.28238 -1.95359 2.24106 
1 -0.425538 -0.342552 3.5845 
1 0.245515 -1.58014 3.19532 
1 0.0342562 -0.67805 2.62122 
2 0.538813 -1.42806 2.37027 
1 0.572411 -3.16326 3.53267 
1 -1.54748 -3.60939 2.96111 
1 -1.43164 -2.79158 3.63868 
1 -2.23199 -0.0295257 2.5701 
1 0.927299 -0.744942 3.21574 
1 1.07036 -0.748574 2.16866 
1 1.3517 -1.61274 2.77823 
1 1.48788 -2.81338 2.93656 
1 -3.57628 -2.63943 3.58642 
2 1.59102 -2.27208 2.2441 
2 -1.00835 -3.70286 3.68989 
1 1.76467 -0.248005 2.82662 
2 1.79568 -2.06476 3.42397 
2 1.80184 -3.31847 3.62297 
1 -2.89442 0.339155 3.35765 
1 -3.36382 1.23309 3.09192 
1 -3.23649 0.456407 2.34894 
2 -2.99956 1.32311 2.27292 
1 -2.2598 1.00666 2.74176 
1 -1.81156 0.298575 3.54218 
1 -1.54987 1.39388 3.72684 
2 -1.62892 0.464209 2.18509 
1 -1.1994 0.916524 2.8134 
1 -0.697445 0.698447 3.72174 
1 -0.627761 1.74339 3.34832 
1 -0.447617 1.50365 2.2887 
1 -0.228243 0.47277 2.73167 
1 0.266596 1.14688 3.40862 
1 0.5464 0.151698 3.67813 
1 0.630608 1.20779 2.42005 
1 0.742735 0.14501 2.607 
2 0.95001 1.6541 3.16617 
1 1.32636 0.818391 3.26392 
2 1.35226 1.40045 1.85935 
1 1.5728 0.633848 2.2476 
1 1.67137 1.66575 2.64582 
2 3.83298 -1.47354 2.47172 
1 1.56102 3.74518 2.16358 
1 2.09337 -1.17477 3.3976 
1 2.14998 -1.09337 2.20556 
1 2.1858 -2.96331 2.12183 
2 2.25907 0.477396 2.88147 
1 2.27073 -3.64169 2.93372 
1 2.36943 1.24589 3.28493 
1 2.32925 -2.04642 2.71201 
1 2.41943 -2.68957 3.56282 
1 3.36805 -2.18626 2.75357 
1 3.71442 -0.586269 2.21664 
1 2.61425 -0.128936 3.4862 
1 3.68291 -0.266515 3.24179 
1 2.72482 -0.121325 2.39138 
1 3.1258 -3.50505 2.21748 
2 2.7759 -2.86069 2.76101 
1 3.04471 -1.1052 2.86759 
1 3.17223 -1.55923 1.85458 
1 3.24196 -3.39444 3.30029 
1 3.19846 0.63388 2.95101 
2 3.25776 1.47671 3.24127 
1 3.53228 1.31169 2.21125 
2 3.7531 0.53799 3.60823 
1 2.53578 1.01055 2.21739 
1 2.08735 2.9027 3.73428 
1 -0.115426 3.7331 1.89574 
1 -3.3439 2.15858 2.0785 
1 -2.59215 1.97747 2.84651 
1 -2.48009 2.7788 2.07517 
1 -2.75554 2.90443 3.27424 
1 -3.49358 3.34672 2.7193 
2 -2.17305 3.57938 3.30975 
1 -2.49929 3.72823 2.48711 
2 -2.98816 2.12298 3.64169 
1 -1.78471 2.87692 2.88541 
2 -1.73633 3.39796 2.13956 
1 -1.48189 1.92122 2.63672 
2 -1.33925 2.28707 3.426 
1 -0.886637 3.13264 2.38205 
1 -0.692235 2.87721 3.36331 
2 -0.665667 2.3051 2.66383 
1 -0.0980873 2.54418 2.01388 
2 -0.0845187 3.07357 2.76199 
1 0.218011 2.22064 2.96006 
1 0.349852 3.13324 3.59283 
1 0.729784 3.12206 2.47987 
1 0.926056 2.16405 2.10076 
1 1.24173 2.49304 3.19975 
1 1.39311 3.56523 3.21562 
1 2.09115 2.82697 2.62647 
2 2.12014 2.14487 3.24847 
2 2.46845 2.61792 1.84916 
1 3.75271 2.23257 3.05458 
1 2.76988 1.98681 2.63254 
1 3.16087 2.89963 2.26332 
1 3.07647 3.03929 3.32616 
