ITEM: TIMESTEP
929
ITEM: NUMBER OF ATOMS
500
ITEM: BOX BOUNDS xy xz yz pp pp pp
-3.7345 3.88388 0.14938
-3.7345 3.7345 0
-3.7345 3.7345 0
ITEM: ATOMS type xu yu zu 
1 -2.7859 -2.05495 -2.49984 
1 -3.10939 -2.99959 -2.92449 
1 -2.54662 -2.31619 -3.62157 
1 -2.23802 -3.34429 -3.45801 
1 -1.87386 -2.53353 -2.79662 
1 -0.941186 -2.69318 -2.24291 
2 -1.75177 -3.05334 -2.10167 
1 -0.7282 -2.35508 -3.2238 
1 0.320654 -2.21914 -3.38363 
1 -0.30218 -3.31176 -3.37991 
2 -0.169844 -2.72767 -2.66787 
1 0.61932 -3.05038 -2.78676 
1 -3.16088 -0.402034 -3.31708 
1 -3.02425 -0.976207 -2.38208 
1 -2.64567 -1.33873 -3.29909 
1 -2.26917 -0.481943 -1.86371 
1 -2.07683 -0.501435 -2.99754 
1 -1.99631 -1.40171 -2.40543 
1 -0.961717 -1.61639 -2.49625 
1 -1.59418 -1.68774 -3.38739 
2 -1.24493 -0.930562 -3.01289 
1 -1.30798 -0.655936 -2.17095 
1 0.0420716 -1.89144 -2.40378 
1 0.40643 -0.835114 -3.36102 
2 0.651117 -1.52054 -2.9169 
1 -0.411914 -0.661433 -2.71762 
1 0.50821 -0.939537 -2.24747 
1 -0.546229 -1.36749 -3.51681 
1 -2.66567 -2.86606 -1.86924 
1 -3.43923 -2.76961 -1.15159 
1 -2.72345 -3.317 -0.390405 
1 -2.45122 -2.35776 -0.870243 
1 -3.33341 -2.22814 -0.194168 
2 -3.56552 -3.08596 -0.342117 
1 -1.63464 -3.32483 -0.22861 
1 -1.76374 -2.24451 -1.75029 
1 -1.9019 -3.25104 -1.24863 
1 -1.35612 -2.42778 -0.770497 
1 -0.743991 -3.11087 -1.28546 
1 -0.635295 -2.00985 -1.48167 
1 0.167702 -2.75612 -1.82107 
1 0.0675081 -2.57839 -0.774783 
1 -0.498072 -3.3401 -0.212976 
1 0.607359 -3.46622 -0.357504 
2 0.665712 -3.09308 -1.1678 
1 -3.17266 -1.82705 -1.54224 
1 -3.52995 -1.10129 -0.834764 
1 -3.30814 -0.20485 -1.6249 
2 -2.95035 -0.99087 -1.51078 
1 -2.58426 -0.515342 -0.876852 
1 -2.6631 -1.41429 -0.322778 
2 -3.41715 -0.219858 -0.741529 
1 -2.17094 -1.38609 -1.296 
2 -1.37798 -1.44138 -1.75286 
1 -1.53072 -0.287517 -1.14952 
2 -1.89465 -0.944254 -0.491477 
1 -1.182 -1.26453 -0.934085 
2 -0.78292 -0.499303 -0.74041 
1 -0.576593 -1.83934 -0.313713 
1 -0.427932 -0.967364 -1.67736 
1 0.411984 -1.69071 -1.36756 
1 -0.052865 -0.978407 -0.698712 
2 0.421689 -0.713574 -1.39912 
2 -3.58703 -1.65924 -2.35069 
1 -1.92893 -0.111054 -0.156989 
2 -3.57971 -0.280294 -2.50324 
1 -1.29856 -3.43153 -2.94409 
1 -3.57224 -3.51829 -2.04676 
1 -2.27899 -3.6703 -2.4254 
1 -0.290132 -0.198019 -0.058368 
1 0.507481 -1.7217 -0.230696 
1 -0.324335 -3.55326 -2.30154 
1 0.897776 -0.0692333 -2.7631 
1 0.932776 -3.56975 -1.90142 
1 -3.55091 -1.92814 -3.17244 
1 1.14986 -0.225729 -1.69353 
1 1.14768 -1.60427 -3.65497 
1 1.15605 -2.12675 -2.58665 
1 1.09102 -0.922648 -0.855363 
1 1.18782 -2.50105 -1.58541 
2 1.22434 -1.78506 -0.997785 
1 1.13256 -2.51116 -0.531869 
1 1.36076 -2.63186 -3.50195 
1 1.43905 -1.07505 -2.80141 
1 1.35029 -1.396 -1.79509 
1 1.34716 -3.70273 -3.19465 
2 1.39153 -2.94597 -2.35488 
1 1.46228 -3.38728 -0.979649 
1 1.62548 -0.308196 -3.54538 
1 1.53862 -1.57075 -0.158552 
1 0.501375 -0.0200859 -0.780174 
1 -1.16258 0.00970605 -3.06184 
1 -1.69104 -1.72853 -0.0793244 
1 1.92921 -0.197235 -2.47928 
1 -3.35989 -3.29362 1.59438 
1 -3.35853 -3.0038 0.523732 
1 -2.60503 -2.64975 1.25602 
2 -2.56778 -3.34508 0.649949 
1 -2.31946 -2.55522 0.208761 
1 -1.74038 -3.14597 0.898711 
1 -1.07225 -2.56146 0.319058 
1 -0.928441 -2.78937 1.64799 
1 -1.71303 -2.03553 0.994385 
1 -0.010915 -2.49987 0.304439 
1 0.172356 -2.70692 1.58066 
1 -0.405823 -3.30318 0.901697 
2 0.67507 -3.49286 1.60296 
1 0.706706 -3.1277 0.730213 
1 0.550816 -1.78666 0.857065 
2 0.874572 -2.37658 0.28156 
1 -2.75213 -1.70707 0.710004 
2 -2.83385 -0.78736 0.936308 
1 -3.3081 -1.25882 1.52204 
1 -2.21247 -1.2053 1.51872 
1 -2.8125 -0.354886 1.75986 
1 -2.0978 -0.92795 0.47357 
2 -1.0018 -1.66565 0.447365 
1 -1.68703 -0.254348 1.63653 
1 -1.21929 -1.07676 1.05687 
2 -1.53826 -0.25704 0.674797 
1 -0.524753 -1.95241 1.1375 
1 -0.680449 -0.164423 0.937263 
1 -0.248295 -1.17252 0.463258 
1 0.146206 -1.1584 1.61323 
2 0.126536 -0.551888 0.939261 
1 0.666747 -0.714078 0.129234 
1 -3.62667 -0.37125 0.958169 
1 0.170789 -0.0458116 1.68777 
1 -3.00199 -0.43278 0.08349 
1 -3.66448 -1.25878 0.234608 
1 1.18094 -1.67855 1.69919 
1 0.973487 -0.654537 1.14261 
2 1.2313 -1.28297 0.5953 
1 1.24892 -2.78672 1.61285 
1 1.56914 -2.13602 0.763275 
1 -1.14311 -0.80284 0.0219926 
1 1.62597 -3.16571 0.131836 
1 1.73049 -0.569228 0.209847 
1 1.89407 -0.195036 1.64828 
1 -3.45124 1.48749 -2.34203 
1 -3.28417 0.72761 -3.13509 
2 -2.67029 1.06521 -2.46121 
1 -2.76186 0.165168 -2.46846 
1 -2.02184 0.741442 -2.96979 
1 -2.50719 1.73805 -1.88207 
1 -2.85015 0.443169 -0.588182 
1 -2.91852 0.803679 -1.61065 
1 -2.5243 1.46723 -0.677008 
2 -2.30389 0.22072 -1.31544 
1 -3.44118 1.71867 -1.27357 
1 -3.53063 1.18712 -0.252882 
1 -2.59078 1.34467 -3.64772 
1 -1.89894 0.824853 -1.91841 
1 -1.84819 1.79401 -2.70045 
2 -1.78935 0.0822756 -2.39065 
1 -1.71382 0.718499 -0.851237 
1 -1.61278 1.69608 -1.30348 
1 -1.46769 1.51822 -0.158006 
1 -1.06216 1.06027 -2.75242 
2 -1.04797 1.15908 -1.75115 
1 -0.968914 0.301569 -2.00023 
1 -0.63699 1.45104 -0.95418 
1 -0.625716 0.333744 -0.985866 
1 -0.219786 1.06168 -2.1084 
1 -0.156249 1.44261 -3.12629 
2 -2.52074 0.170255 -3.35197 
1 -0.0840375 0.831542 -0.189087 
1 -0.0899845 0.354418 -2.90962 
1 0.274644 0.937678 -1.19205 
1 0.347933 1.79754 -0.485333 
1 0.836555 1.78255 -2.4613 
1 0.845 0.764592 -2.08753 
1 0.926617 0.969492 -3.16724 
1 1.01348 0.902404 -0.406487 
2 1.07865 0.561782 -1.23865 
2 1.03223 0.0866029 -0.0223217 
1 1.14137 1.53882 -1.38585 
2 1.52877 0.558471 -2.60003 
1 1.59239 0.0358722 -0.717887 
1 1.61978 1.71792 -3.61627 
1 0.0802321 0.00428799 -1.83214 
1 1.82715 1.36975 -2.51771 
1 1.86292 0.689209 -1.6637 
2 -3.16035 0.344694 1.38891 
2 -2.52553 1.00368 0.95742 
1 -3.26899 1.22598 1.40002 
1 -2.83336 1.64591 0.414432 
1 -3.22804 0.569334 0.538611 
1 -2.36971 0.657544 1.7334 
1 -2.38858 1.75061 1.77366 
1 -2.19228 0.834832 0.17401 
1 -1.84918 1.61967 0.864211 
1 -1.51227 0.589355 1.01283 
1 -1.44672 1.25895 1.82383 
2 -1.0876 1.25597 0.6099 
1 -2.40149 0.016708 0.862301 
1 -0.474071 1.75961 0.21916 
1 -1.08152 0.516753 0.056216 
1 -0.374604 0.895441 0.992484 
1 0.230692 1.68112 1.45899 
1 0.375898 0.225751 0.623744 
1 0.555738 1.28713 0.5051 
1 0.830262 0.819552 1.44243 
2 1.05794 0.0371758 1.74884 
1 1.39466 0.228817 0.779488 
2 1.42047 1.12183 0.596368 
1 1.93656 0.91311 1.31323 
1 1.95786 0.68881 0.0341313 
1 1.97907 0.674182 -3.36231 
2 2.00226 1.58477 -1.65764 
1 1.9644 -1.12173 1.08286 
1 2.02941 1.42682 -0.767075 
1 2.08301 -1.88962 -3.18088 
1 2.03808 -3.29052 -1.85936 
1 2.08764 -1.53573 -1.06455 
1 2.10294 -2.20829 -2.04892 
1 2.12437 -2.92618 -2.85126 
1 2.20105 1.60815 0.569106 
1 2.16748 -2.59304 -1.0136 
1 2.24331 -0.304708 -1.48829 
1 2.19377 -3.00313 1.04992 
1 2.20404 -2.02867 1.62971 
1 2.30009 -2.27001 -0.00937995 
2 2.38301 1.45532 -3.27204 
2 2.33587 -1.32109 0.101118 
1 2.38152 -1.173 -2.063 
1 2.43647 -0.672444 -0.536301 
2 2.49126 0.00700993 -3.11567 
1 2.52262 0.182876 0.802079 
1 2.50895 -0.874187 -3.12795 
2 2.52441 -3.13461 -0.00771382 
1 2.49181 -3.63446 -0.73087 
1 2.50855 -3.70706 -3.44547 
1 2.59697 0.499071 -0.826028 
1 2.60099 0.638598 -2.49626 
2 2.57916 0.357826 1.64735 
1 -3.7058 -2.06262 0.945034 
2 3.67593 -1.97147 -0.900635 
1 3.16593 -2.76159 -3.12229 
2 2.81219 -2.67792 -2.3022 
2 3.18751 -0.823455 -3.73399 
1 3.53513 -1.00309 -2.92071 
1 3.01333 -1.74175 -3.73003 
1 3.15876 -2.64999 -0.521037 
1 3.53009 -1.09285 -1.81215 
1 3.24159 -0.320392 -1.12435 
2 3.30635 -0.757233 -0.349873 
2 2.82911 -1.09209 -1.2543 
1 3.01739 -1.97051 -1.49131 
1 2.90712 -3.56998 -2.44465 
1 3.01891 -3.03999 -1.52485 
1 2.99482 -0.31971 -2.26288 
1 2.99864 -1.56478 -0.480841 
1 2.99167 -1.84256 -2.59381 
1 3.70946 -2.49859 -2.18353 
1 3.59906 -3.70887 -0.963025 
2 3.42414 -1.18003 1.03747 
2 3.34922 -2.03301 0.149832 
1 3.31587 -3.61251 0.0261332 
1 3.21175 -3.63816 1.11494 
1 2.88893 -0.604174 1.46728 
1 2.78011 -1.72153 0.76806 
1 3.1261 -2.62146 1.64413 
1 2.89958 -0.716127 0.417754 
1 3.07182 -2.74393 0.556556 
2 2.61562 0.0489871 -0.0568229 
1 3.06717 0.931363 -3.4855 
1 3.02193 1.61421 -2.68539 
1 3.6269 0.52542 -2.20526 
1 3.51449 0.0517733 -0.0983303 
1 2.8514 1.26086 -1.64372 
2 2.89211 0.347626 -1.6645 
1 3.61771 0.660316 -1.11389 
1 3.09592 1.70096 -0.659285 
1 3.82478 1.6684 -3.45761 
1 3.35931 -0.00981591 -3.20821 
1 3.45534 0.326011 1.66573 
2 3.7752 1.30938 0.629909 
1 2.98241 0.920032 0.129556 
1 3.01606 1.13044 1.17407 
2 3.38867 0.390696 0.756697 
1 -2.85697 2.15815 -2.88167 
1 -2.60377 3.19696 -3.16541 
1 -2.4494 2.81653 -2.08438 
2 -3.19212 2.26622 -1.98724 
1 -2.98621 3.18166 -0.363956 
1 -3.45058 2.82193 -1.34284 
1 -2.49764 2.44934 -1.08976 
1 -3.42489 2.23315 -0.29754 
1 -1.91936 3.26832 -0.755098 
1 -3.43934 2.97895 -2.44297 
1 -2.09228 2.30745 -3.62566 
1 -2.17359 2.37621 -0.0816542 
1 -3.5394 2.73106 -3.50287 
1 -2.71339 3.64089 -1.34754 
2 -1.9317 3.42568 -1.64768 
2 -1.33957 3.08291 -0.14131 
1 -1.54534 3.22526 -3.60392 
1 -1.49775 2.89749 -2.602 
1 -1.45031 2.70634 -1.56316 
1 -1.12913 2.38691 -0.609706 
1 -0.974835 2.20152 -3.23012 
1 -0.852518 3.40897 -0.85231 
1 -0.888806 1.94958 -2.1675 
2 -0.704892 2.23917 -1.3689 
1 -0.52646 3.19256 -3.10108 
1 -0.41939 2.92269 -1.9128 
2 -0.177814 2.37002 -3.60134 
1 -0.0691457 2.68736 -0.952145 
1 0.0275038 2.39753 -2.70802 
1 0.117423 1.94256 -1.6551 
2 0.0839873 3.40094 -0.43779 
1 0.238193 3.69238 -1.25743 
1 0.558371 3.35263 -2.77486 
1 0.616326 2.01855 -3.54089 
1 0.724408 2.86071 -1.75784 
2 0.715725 2.29721 -1.09226 
1 0.774661 2.85107 -0.34216 
2 1.07328 3.35408 -1.03914 
1 -1.14504 3.6869 -1.92847 
1 1.28529 2.66495 -3.05609 
2 1.33753 3.15516 -2.31476 
1 1.32935 1.86093 -0.00904059 
1 1.55299 2.41908 -0.914839 
1 1.64556 2.32809 -2.01885 
1 1.74903 3.29708 -0.32369 
1 1.84443 3.22069 -1.52372 
1 -2.34313 2.5914 0.9993 
1 -3.43562 3.14021 1.6542 
1 -3.07051 3.42552 0.691325 
2 -2.93156 2.60984 0.333984 
1 -3.38896 2.26854 1.01905 
1 -2.25911 3.62764 1.40665 
1 -2.06852 3.39436 0.301015 
2 -1.6233 3.14435 1.01165 
1 -1.48205 2.58111 1.69421 
1 -1.29913 2.48791 0.523033 
1 -1.11327 3.63235 1.52078 
1 -0.996242 3.55462 0.479988 
1 -0.795353 1.87221 1.25094 
1 -0.41755 2.91461 1.09665 
1 -0.404701 2.82194 0.0186461 
1 0.341363 3.43659 0.438563 
1 0.411033 2.35015 0.583722 
1 0.662748 3.10742 1.39455 
2 1.20005 3.60881 0.295869 
1 1.26121 1.84603 1.10158 
1 1.43114 2.77977 0.559326 
1 1.58984 3.69921 1.08606 
1 1.64643 2.78771 1.64123 
1 2.16614 3.30094 -2.54113 
1 2.14466 1.84768 1.70105 
1 2.22794 2.25799 -2.89357 
2 2.37432 2.98558 -0.860902 
1 2.34141 2.39743 -0.160445 
1 2.46692 2.61252 0.941761 
1 2.49465 3.48135 1.63915 
1 2.50586 3.55243 0.4252 
1 2.50056 2.26262 -1.33724 
2 2.54384 2.6144 -2.14374 
1 2.09975 2.90294 3.73474 
1 2.87432 2.07917 -3.71178 
1 3.07389 2.8669 -2.89187 
1 3.21306 2.8767 -0.581649 
1 3.35983 2.27885 -1.95826 
1 2.94342 3.23802 -1.60462 
2 3.69739 2.22105 -2.78598 
1 3.77512 3.72855 -3.20382 
1 3.21406 1.92935 0.404448 
2 3.20063 2.98336 1.35596 
1 3.44657 2.93437 0.501291 
1 3.17863 2.1089 1.55609 
1 -0.803651 0.405494 1.85332 
2 0.0118376 0.841992 1.85407 
1 -0.773296 -0.731816 1.94553 
1 -3.36061 -2.233 1.92589 
2 -2.73065 -2.88443 2.13234 
1 -3.45109 -3.04798 2.61631 
1 -2.27997 -2.10226 2.12161 
1 -2.3265 -2.87692 2.97716 
1 -3.02487 -2.08829 2.8953 
1 -1.87583 -3.12438 2.02313 
1 -1.12653 -2.60565 2.65257 
2 -1.03117 -3.43305 2.27331 
2 -0.986873 -2.02901 3.44216 
1 -1.81423 -1.88731 3.06959 
1 0.502098 -3.30279 2.48495 
1 -0.238847 -2.52206 3.21335 
2 -0.278878 -2.86304 2.35559 
1 0.67836 -2.29963 2.44304 
1 -0.45615 -3.56028 2.97964 
2 0.820311 -2.29197 3.32082 
1 -3.11633 -3.56656 3.49621 
1 -2.81108 -1.1441 2.4946 
1 -2.46403 -0.634815 3.39024 
2 -3.04437 -0.327582 2.73962 
1 -3.46764 -1.26601 3.41624 
2 -2.56466 -1.49658 3.31463 
1 -1.13705 -0.136532 2.75556 
1 -1.27738 -1.75076 1.94593 
1 -1.42813 -0.748581 3.60476 
1 -1.76161 -0.97631 2.50487 
1 -0.820466 -1.32662 2.91056 
1 -0.278174 -1.9526 2.23931 
1 -0.417954 -0.343875 3.58375 
1 0.25147 -1.57881 3.19349 
1 0.0414772 -0.676701 2.61984 
2 0.544355 -1.42675 2.36833 
1 0.574695 -3.16301 3.53364 
1 -1.54597 -3.60714 2.96538 
1 -1.43967 -2.78372 3.64004 
1 -2.22423 -0.0292102 2.57096 
1 0.933928 -0.744142 3.21538 
1 1.07703 -0.747861 2.168 
1 1.35647 -1.61224 2.77708 
1 1.49031 -2.81324 2.93447 
1 -3.57913 -2.63783 3.58382 
2 1.59455 -2.27184 2.24184 
2 -1.00531 -3.7085 3.69105 
1 1.77201 -0.248296 2.82668 
2 1.79956 -2.06521 3.42251 
2 1.80263 -3.31926 3.62015 
1 -2.88544 0.337339 3.35791 
1 -3.35334 1.23205 3.09373 
1 -3.22861 0.456708 2.34976 
2 -2.99106 1.32369 2.27356 
1 -2.25106 1.00677 2.74232 
1 -1.80331 0.298441 3.54247 
1 -1.53875 1.39312 3.72818 
2 -1.62116 0.464738 2.18603 
1 -1.19049 0.916471 2.81418 
1 -0.686679 0.697789 3.72205 
1 -0.617021 1.74327 3.34875 
1 -0.438805 1.50429 2.28849 
1 -0.219763 0.473279 2.73158 
1 0.276985 1.14728 3.4078 
1 0.553579 0.152085 3.67832 
1 0.640368 1.20877 2.41924 
1 0.751161 0.146167 2.60753 
2 0.961208 1.65403 3.16616 
1 1.33644 0.818011 3.26412 
2 1.36211 1.40046 1.85916 
1 1.58217 0.633864 2.24757 
1 1.68203 1.66553 2.64553 
2 3.83778 -1.47334 2.47049 
1 1.57526 3.7464 2.16177 
1 2.09927 -1.17566 3.39699 
1 2.15588 -1.09321 2.20403 
1 2.18819 -2.96395 2.11985 
2 2.26652 0.477389 2.88146 
1 2.27152 -3.64217 2.93154 
1 2.37977 1.24531 3.28472 
1 2.33217 -2.04739 2.71042 
1 2.42192 -2.69107 3.56132 
1 2.54574 1.0098 2.21698 
1 3.3701 -2.18574 2.74928 
1 3.72073 -0.585771 2.21664 
1 2.62188 -0.129125 3.48656 
1 3.69109 -0.268083 3.24216 
1 2.73128 -0.121199 2.39112 
1 3.12711 -3.50736 2.21631 
2 2.77885 -2.86148 2.75908 
1 3.0505 -1.10525 2.86691 
1 3.17708 -1.55818 1.85247 
1 3.2425 -3.39657 3.29942 
1 3.20794 0.632411 2.95087 
2 3.26791 1.47578 3.2401 
1 3.54205 1.31302 2.21412 
2 3.76255 0.536279 3.60816 
1 -0.10005 3.73378 1.89694 
1 -3.33473 2.16101 2.08113 
1 -2.58211 1.978 2.84684 
1 -2.468 2.77853 2.07549 
1 -2.74047 2.9053 3.27667 
1 -3.47928 3.34437 2.72073 
2 -2.159 3.58172 3.30881 
1 -2.48542 3.72816 2.4864 
2 -2.97559 2.12361 3.64319 
1 -1.77118 2.87924 2.88488 
2 -1.72184 3.39914 2.13965 
1 -1.4712 1.92185 2.63942 
2 -1.32689 2.28943 3.42783 
1 -0.872307 3.13449 2.38481 
1 -0.678049 2.87724 3.36567 
2 -0.654229 2.30598 2.66492 
1 -0.0857786 2.54524 2.01505 
2 -0.0703546 3.07321 2.76426 
1 0.229653 2.22035 2.96079 
1 0.363704 3.1327 3.59449 
1 0.742867 3.12345 2.47892 
1 0.937358 2.16478 2.10029 
1 1.25349 2.49318 3.19995 
1 1.40814 3.5652 3.21274 
1 2.10342 2.8274 2.62669 
2 2.13083 2.1449 3.24847 
2 2.48165 2.61663 1.85026 
1 3.76336 2.23128 3.05679 
1 2.77996 1.98657 2.63262 
1 3.17536 2.89736 2.26383 
1 3.08849 3.03811 3.32623 
