ITEM: TIMESTEP
907
ITEM: NUMBER OF ATOMS
500
ITEM: BOX BOUNDS xy xz yz pp pp pp
-3.7345 3.87641 0.141911
-3.7345 3.7345 0
-3.7345 3.7345 0
ITEM: ATOMS type xu yu zu 
1 -2.7878 -2.05538 -2.50094 
1 -3.10903 -3.00097 -2.92429 
1 -2.54664 -2.31625 -3.62115 
1 -2.23716 -3.34417 -3.45837 
1 -1.87408 -2.53399 -2.79627 
1 -0.941288 -2.69333 -2.2413 
2 -1.75191 -3.05311 -2.10096 
1 -0.730345 -2.35363 -3.22168 
1 0.318532 -2.22022 -3.38303 
1 -0.303622 -3.30938 -3.3805 
2 -0.170524 -2.72761 -2.668 
1 0.618723 -3.05081 -2.78634 
1 -3.16535 -0.402298 -3.31737 
1 -3.02716 -0.976184 -2.38271 
1 -2.6483 -1.33853 -3.29995 
1 -2.2728 -0.481203 -1.86369 
1 -2.08052 -0.501169 -2.99756 
1 -1.99947 -1.40107 -2.40528 
1 -0.964914 -1.61542 -2.49495 
1 -1.59666 -1.68763 -3.38678 
2 -1.248 -0.930139 -3.01281 
1 -1.31171 -0.654721 -2.17137 
1 0.0385736 -1.89132 -2.40392 
1 0.402954 -0.835231 -3.3609 
2 0.647825 -1.52066 -2.91689 
1 -0.415122 -0.66031 -2.71711 
1 0.504536 -0.939624 -2.24715 
1 -0.549461 -1.36653 -3.5162 
1 -2.66642 -2.86587 -1.8696 
1 -3.43996 -2.76978 -1.15146 
1 -2.72434 -3.31713 -0.391421 
1 -2.45313 -2.35715 -0.870185 
1 -3.33559 -2.22876 -0.193052 
2 -3.56644 -3.0864 -0.341824 
1 -1.63512 -3.32401 -0.228651 
1 -1.76474 -2.24356 -1.75043 
1 -1.90306 -3.25022 -1.24838 
1 -1.35851 -2.42653 -0.770195 
1 -0.744067 -3.10964 -1.28288 
1 -0.636794 -2.00903 -1.48075 
1 0.166879 -2.75558 -1.82072 
1 0.0685914 -2.57765 -0.773926 
1 -0.496984 -3.33923 -0.211808 
1 0.607643 -3.46599 -0.357543 
2 0.665403 -3.09311 -1.16778 
1 -3.17482 -1.82722 -1.54297 
1 -3.53301 -1.10183 -0.834794 
1 -3.31197 -0.204845 -1.62485 
2 -2.95387 -0.990707 -1.51125 
1 -2.58805 -0.515373 -0.876882 
1 -2.66592 -1.41438 -0.32265 
2 -3.42119 -0.220471 -0.741504 
1 -2.17419 -1.38561 -1.29633 
2 -1.3813 -1.43924 -1.75224 
1 -1.5343 -0.288675 -1.14898 
2 -1.89808 -0.944287 -0.491354 
1 -1.18552 -1.26577 -0.932922 
2 -0.785652 -0.50057 -0.741367 
1 -0.577799 -1.83976 -0.31404 
1 -0.432367 -0.965701 -1.67619 
1 0.4095 -1.68966 -1.36844 
1 -0.0551028 -0.978376 -0.698466 
2 0.417912 -0.712404 -1.39925 
2 -3.58933 -1.65971 -2.3508 
1 -1.93285 -0.110932 -0.157165 
2 -3.58352 -0.280435 -2.50308 
1 -1.29847 -3.4323 -2.94247 
1 -3.57267 -3.51896 -2.04656 
1 -2.2784 -3.67029 -2.4253 
1 -0.293552 -0.197704 -0.0590828 
1 0.50712 -1.72074 -0.231969 
1 -0.323916 -3.55304 -2.30223 
1 0.893738 -0.0691633 -2.76317 
1 0.932896 -3.56919 -1.90109 
1 -3.5532 -1.92713 -3.17303 
1 1.14594 -0.224756 -1.69403 
1 1.14497 -1.60462 -3.65469 
1 1.15313 -2.12625 -2.58593 
1 1.08769 -0.922037 -0.856104 
1 1.18668 -2.50019 -1.58434 
2 1.22122 -1.78425 -0.997609 
1 1.13384 -2.51042 -0.530591 
1 1.35919 -2.63193 -3.50111 
1 1.43526 -1.07455 -2.80166 
1 1.34782 -1.39502 -1.79535 
1 1.34806 -3.70262 -3.19293 
2 1.39124 -2.9446 -2.35417 
1 1.46222 -3.38687 -0.979329 
1 1.62198 -0.307878 -3.54544 
1 1.53834 -1.56889 -0.159877 
1 0.497908 -0.0194505 -0.780229 
1 -1.16647 0.0101482 -3.06166 
1 -1.69375 -1.72842 -0.0778657 
1 1.92555 -0.197265 -2.47933 
1 -3.35966 -3.29498 1.59586 
1 -3.36067 -3.0053 0.524659 
1 -2.60629 -2.65024 1.25629 
2 -2.56946 -3.34565 0.650346 
1 -2.32164 -2.55579 0.208926 
1 -1.74169 -3.14671 0.897783 
1 -1.07321 -2.56117 0.319611 
1 -0.929331 -2.78906 1.64661 
1 -1.71488 -2.03623 0.995024 
1 -0.0120468 -2.49768 0.306072 
1 0.171257 -2.70603 1.58028 
1 -0.405838 -3.30379 0.901394 
2 0.673593 -3.49259 1.60208 
1 0.706644 -3.12613 0.729464 
1 0.549753 -1.78157 0.855494 
2 0.872668 -2.37406 0.281683 
1 -2.75431 -1.70764 0.710125 
2 -2.8374 -0.787679 0.936085 
1 -3.31091 -1.25934 1.52207 
1 -2.21532 -1.20553 1.51872 
1 -2.81595 -0.354974 1.75936 
1 -2.10124 -0.927502 0.4737 
2 -1.00325 -1.66551 0.447086 
1 -1.69081 -0.254563 1.6361 
1 -1.22227 -1.07681 1.05644 
2 -1.54178 -0.256813 0.674648 
1 -0.525953 -1.95061 1.13789 
1 -0.683627 -0.164522 0.93676 
1 -0.250978 -1.17131 0.461775 
1 0.142869 -1.15852 1.61467 
2 0.123712 -0.552413 0.939984 
1 0.665121 -0.712647 0.129003 
1 -3.63013 -0.371607 0.958253 
1 0.167036 -0.0461855 1.68805 
1 -3.006 -0.43277 0.0832853 
1 -3.66741 -1.25934 0.234779 
1 1.17785 -1.6794 1.70009 
1 0.970231 -0.656645 1.14321 
2 1.23133 -1.28077 0.593201 
1 1.24748 -2.78689 1.61415 
1 1.56731 -2.13452 0.763141 
1 -1.14663 -0.80201 0.0218306 
1 1.62607 -3.16607 0.13212 
1 1.72972 -0.567197 0.210617 
1 1.89079 -0.1953 1.64956 
1 -3.45683 1.48746 -2.34203 
1 -3.289 0.727528 -3.13489 
2 -2.67601 1.06497 -2.46159 
1 -2.76625 0.164891 -2.46884 
1 -2.02727 0.741945 -2.97034 
1 -2.51234 1.7378 -1.88274 
1 -2.85498 0.443069 -0.588448 
1 -2.92323 0.803547 -1.61082 
1 -2.52887 1.46694 -0.677508 
2 -2.308 0.221015 -1.31516 
1 -3.44622 1.71839 -1.27339 
1 -3.53589 1.18667 -0.252495 
1 -2.59642 1.34478 -3.64829 
1 -1.9038 0.825195 -1.91884 
1 -1.85361 1.79503 -2.70139 
2 -1.79346 0.0830883 -2.39117 
1 -1.71715 0.71827 -0.85183 
1 -1.61787 1.69625 -1.30388 
1 -1.47245 1.51804 -0.157921 
1 -1.06784 1.06061 -2.75215 
2 -1.0529 1.16025 -1.75238 
1 -0.973346 0.30255 -1.9996 
1 -0.642202 1.45035 -0.954708 
1 -0.629469 0.332875 -0.98573 
1 -0.224403 1.06246 -2.10922 
1 -0.162595 1.44347 -3.12683 
2 -2.52494 0.169603 -3.35257 
1 -0.0880819 0.831734 -0.189543 
1 -0.0937078 0.355473 -2.91053 
1 0.269816 0.937778 -1.19266 
1 0.342813 1.79781 -0.485629 
1 0.830809 1.78323 -2.46164 
1 0.840616 0.765164 -2.08779 
1 0.921301 0.969727 -3.16703 
1 1.00933 0.903415 -0.407363 
2 1.07422 0.562215 -1.23896 
2 1.02987 0.0887171 -0.0216183 
1 1.136 1.53928 -1.38607 
2 1.52437 0.558166 -2.59965 
1 1.58838 0.0358757 -0.718376 
1 1.61393 1.71807 -3.61645 
1 0.0761899 0.00494159 -1.83284 
1 1.82184 1.36969 -2.51722 
1 1.85868 0.688563 -1.6636 
2 -3.16415 0.344806 1.38902 
2 -2.52974 1.00283 0.956664 
1 -3.27202 1.22633 1.39978 
1 -2.83737 1.64595 0.413609 
1 -3.2328 0.569236 0.538739 
1 -2.37345 0.657659 1.73309 
1 -2.39152 1.75065 1.77508 
1 -2.19682 0.834614 0.173293 
1 -1.85414 1.61909 0.864567 
1 -1.51664 0.589173 1.01235 
1 -1.44989 1.25848 1.82305 
2 -1.09234 1.25628 0.610168 
1 -2.40569 0.0169275 0.861908 
1 -0.478997 1.75933 0.218874 
1 -1.08534 0.516869 0.056111 
1 -0.379317 0.895592 0.992298 
1 0.226056 1.68059 1.45916 
1 0.371563 0.225846 0.624042 
1 0.550975 1.28715 0.505059 
1 0.825657 0.819475 1.4428 
2 1.05424 0.0366017 1.7481 
1 1.38991 0.227593 0.781911 
2 1.41523 1.12067 0.597394 
1 1.9324 0.91289 1.31353 
1 1.95222 0.686804 0.0352056 
1 1.97346 0.674983 -3.36213 
2 1.99664 1.58411 -1.65723 
1 1.96238 -1.12137 1.08333 
1 2.02357 1.42563 -0.766425 
1 2.08031 -1.88889 -3.18 
1 2.03797 -3.29084 -1.85967 
1 2.08558 -1.53763 -1.06637 
1 2.10096 -2.20874 -2.04917 
1 2.1238 -2.92607 -2.85146 
1 2.19559 1.60706 0.568596 
1 2.16797 -2.59407 -1.01395 
1 2.23905 -0.305879 -1.48828 
1 2.19169 -3.00175 1.05089 
1 2.20137 -2.02833 1.63055 
1 2.29815 -2.27041 -0.00957681 
2 2.37762 1.45576 -3.27264 
2 2.33512 -1.32218 0.101546 
1 2.37919 -1.17361 -2.06388 
1 2.43309 -0.674482 -0.536786 
2 2.48621 0.00814983 -3.11695 
1 2.51814 0.181768 0.802686 
1 2.5056 -0.873152 -3.12797 
1 -3.70789 -2.06342 0.944969 
2 3.67456 -1.97227 -0.900458 
1 3.16536 -2.76208 -3.12249 
2 2.81087 -2.67855 -2.30166 
2 2.52351 -3.13506 -0.00934256 
2 3.18457 -0.822839 -3.7336 
1 2.49198 -3.63555 -0.73191 
1 3.53129 -1.00317 -2.91996 
1 3.01053 -1.74075 -3.72934 
1 3.1577 -2.65067 -0.52097 
1 3.52777 -1.09315 -1.81226 
1 3.23769 -0.320952 -1.12451 
2 3.30302 -0.758055 -0.34997 
2 2.82668 -1.09329 -1.25491 
1 3.01637 -1.97168 -1.49192 
1 2.90703 -3.56999 -2.44489 
1 3.01906 -3.04122 -1.52476 
1 2.50861 -3.70703 -3.44519 
1 2.99126 -0.319831 -2.26202 
1 2.99639 -1.56593 -0.481703 
1 2.98964 -1.84373 -2.59377 
1 3.70844 -2.4995 -2.18425 
1 3.60001 -3.7096 -0.962839 
2 3.42129 -1.18055 1.03781 
2 3.34638 -2.03336 0.149973 
1 3.31459 -3.61317 0.0257173 
1 3.21269 -3.63795 1.11503 
1 2.88579 -0.604915 1.46766 
1 2.77766 -1.7225 0.768951 
1 3.12392 -2.62117 1.6436 
1 2.89686 -0.716453 0.417996 
1 3.06967 -2.74481 0.556264 
2 2.61033 0.0470834 -0.0564027 
1 3.06138 0.930628 -3.48535 
1 3.01623 1.6143 -2.68571 
1 3.62247 0.525234 -2.20506 
1 3.50994 0.0514846 -0.0987636 
1 2.84623 1.26055 -1.64385 
2 2.88725 0.347442 -1.66415 
1 3.61284 0.660232 -1.11397 
1 2.59239 0.49814 -0.825406 
1 3.09022 1.69973 -0.659353 
1 2.59641 0.638406 -2.49634 
1 3.81893 1.66775 -3.45815 
1 3.35474 -0.0101656 -3.2079 
1 3.45148 0.325706 1.66521 
2 3.77137 1.31021 0.630284 
1 2.97685 0.918922 0.129746 
1 3.01185 1.13047 1.1741 
2 3.38407 0.390058 0.756447 
2 2.57538 0.358232 1.64762 
1 -2.8628 2.15765 -2.88242 
1 -2.60975 3.19668 -3.16632 
1 -2.4541 2.81568 -2.08548 
2 -3.19738 2.26598 -1.9872 
1 -2.99204 3.18064 -0.364886 
1 -3.45664 2.82148 -1.34295 
1 -2.50337 2.44916 -1.09045 
1 -3.43158 2.23272 -0.297025 
1 -1.92596 3.26886 -0.755453 
1 -3.44448 2.97844 -2.44328 
1 -2.09872 2.3077 -3.62689 
1 -2.17726 2.37668 -0.0826915 
1 -3.54579 2.73048 -3.503 
1 -2.72014 3.64015 -1.3487 
2 -1.93801 3.42555 -1.64786 
2 -1.34852 3.08019 -0.14052 
1 -1.5517 3.22536 -3.60391 
1 -1.50136 2.89926 -2.60132 
1 -1.45583 2.7067 -1.56259 
1 -1.13349 2.38629 -0.609871 
1 -0.980846 2.20262 -3.23099 
1 -0.858974 3.40927 -0.849822 
1 -0.894315 1.95046 -2.16858 
2 -0.710418 2.23858 -1.36969 
1 -0.531779 3.19349 -3.10303 
1 -0.42563 2.92328 -1.91281 
2 -0.183686 2.37122 -3.60204 
1 -0.0755803 2.68751 -0.951986 
1 0.0210418 2.39801 -2.70823 
1 0.111948 1.94305 -1.65514 
2 0.0770479 3.40132 -0.437481 
1 0.230302 3.69267 -1.25755 
1 0.551672 3.35244 -2.7749 
1 0.610304 2.01905 -3.54102 
1 0.718091 2.86131 -1.75787 
2 0.709985 2.29805 -1.09232 
1 0.768277 2.85144 -0.342194 
2 1.06553 3.35506 -1.03912 
1 -1.15121 3.68812 -1.92616 
1 1.27932 2.66525 -3.05583 
2 1.33088 3.15602 -2.31476 
1 1.32387 1.86156 -0.00847267 
1 1.54737 2.4187 -0.914314 
1 1.63998 2.32829 -2.01873 
1 1.7428 3.29708 -0.32355 
1 1.83704 3.221 -1.52303 
1 -2.34941 2.59037 0.99896 
1 -3.44277 3.13871 1.65363 
1 -3.07836 3.42384 0.690604 
2 -2.93576 2.60892 0.332633 
1 -3.39537 2.26798 1.01687 
1 -2.26688 3.62683 1.40629 
1 -2.07643 3.39468 0.300725 
2 -1.63076 3.14412 1.01082 
1 -1.48856 2.58032 1.69297 
1 -1.30449 2.48717 0.524333 
1 -1.12127 3.63239 1.52001 
1 -1.00396 3.55421 0.478776 
1 -0.799143 1.8729 1.25106 
1 -0.423912 2.91633 1.09695 
1 -0.410399 2.82175 0.0193804 
1 0.33551 3.4367 0.439091 
1 0.404882 2.35011 0.584501 
1 0.655811 3.10703 1.3953 
2 1.19353 3.60945 0.295671 
1 1.25622 1.84597 1.10158 
1 1.424 2.78061 0.559713 
1 1.58075 3.7 1.08714 
1 1.63977 2.78769 1.64111 
1 2.15987 3.2996 -2.54041 
1 2.13923 1.8478 1.70128 
1 2.22191 2.25777 -2.89402 
2 2.36741 2.98455 -0.861042 
1 2.3356 2.39715 -0.160156 
1 2.45984 2.61184 0.94156 
1 2.48711 3.48224 1.63823 
1 2.49786 3.55331 0.427398 
1 2.49487 2.26181 -1.33708 
2 2.53831 2.61275 -2.14401 
1 2.09355 2.90283 3.73452 
1 2.86905 2.07978 -3.71179 
1 3.06806 2.86663 -2.89116 
1 3.20658 2.87587 -0.582547 
1 3.35438 2.27832 -1.95823 
1 2.9366 3.23729 -1.60533 
2 3.69173 2.2206 -2.78622 
1 3.76749 3.72792 -3.20404 
1 3.20818 1.92825 0.404098 
2 3.19311 2.98432 1.35567 
1 3.43787 2.93395 0.501194 
1 3.17297 2.1099 1.55602 
1 -0.807557 0.404873 1.85303 
2 0.00724998 0.841724 1.85399 
1 -0.776791 -0.731373 1.94558 
1 -3.36234 -2.23348 1.92632 
2 -2.73109 -2.88435 2.13284 
1 -3.45095 -3.0478 2.61727 
1 -2.28127 -2.10213 2.12187 
1 -2.32614 -2.87659 2.97729 
1 -3.02555 -2.08801 2.89579 
1 -1.87658 -3.12425 2.02211 
1 -1.12779 -2.60599 2.65125 
2 -1.0313 -3.43313 2.27221 
2 -0.988314 -2.02894 3.44354 
1 -1.81478 -1.88831 3.07011 
1 0.501851 -3.30376 2.48433 
1 -0.241618 -2.52276 3.21441 
2 -0.279021 -2.86313 2.35582 
1 0.675956 -2.30034 2.44441 
1 -0.456898 -3.56059 2.97906 
2 0.818549 -2.29227 3.32168 
1 -3.11587 -3.56735 3.49653 
1 -2.81393 -1.14353 2.49444 
1 -2.46769 -0.633537 3.39052 
2 -3.04814 -0.327391 2.73995 
1 -3.46984 -1.26524 3.41519 
2 -2.56485 -1.49553 3.31368 
1 -1.141 -0.13648 2.75575 
1 -1.27906 -1.75024 1.94592 
1 -1.43182 -0.748626 3.60484 
1 -1.76477 -0.976727 2.50536 
1 -0.823383 -1.32679 2.91099 
1 -0.280314 -1.95296 2.24025 
1 -0.421766 -0.343221 3.58417 
1 0.248486 -1.57948 3.19449 
1 0.0378842 -0.67741 2.62061 
2 0.541522 -1.42744 2.36938 
1 0.573603 -3.16315 3.53312 
1 -1.54671 -3.60807 2.96346 
1 -1.43634 -2.78708 3.63944 
1 -2.22803 -0.0292838 2.57063 
1 0.930748 -0.744614 3.21565 
1 1.07369 -0.748317 2.16845 
1 1.3541 -1.61253 2.77762 
1 1.48905 -2.81338 2.93535 
1 -3.57793 -2.63864 3.58502 
2 1.59277 -2.27191 2.24296 
2 -1.00668 -3.70593 3.6905 
1 1.76834 -0.248083 2.8266 
2 1.79769 -2.06502 3.42314 
2 1.80221 -3.31892 3.62116 
1 -2.88994 0.338227 3.35777 
1 -3.35859 1.23259 3.09272 
1 -3.23256 0.456546 2.34937 
2 -2.99526 1.32341 2.27319 
1 -2.25546 1.00679 2.7421 
1 -1.80746 0.298494 3.5424 
1 -1.54439 1.39349 3.72754 
2 -1.62501 0.464539 2.18553 
1 -1.19499 0.9165 2.81381 
1 -0.692121 0.698119 3.72193 
1 -0.622473 1.74334 3.34855 
1 -0.443227 1.50402 2.28865 
1 -0.224024 0.473042 2.73157 
1 0.271693 1.14706 3.40822 
1 0.550031 0.151811 3.67811 
1 0.635446 1.20819 2.41965 
1 0.746954 0.145543 2.60742 
2 0.955506 1.65407 3.16616 
1 1.33128 0.818348 3.26402 
2 1.35718 1.40047 1.85927 
1 1.57747 0.633939 2.24768 
1 1.67664 1.66574 2.64569 
2 3.83534 -1.47341 2.47113 
1 1.56814 3.74565 2.1628 
1 2.09636 -1.17526 3.39727 
1 2.15291 -1.09321 2.20474 
1 2.18697 -2.96365 2.12078 
2 2.26288 0.477416 2.88147 
1 2.27114 -3.64209 2.93245 
1 2.37458 1.24567 3.28477 
1 2.33075 -2.04689 2.71113 
1 2.42069 -2.69037 3.56201 
1 2.54075 1.01019 2.21714 
1 3.36904 -2.18609 2.75119 
1 3.71759 -0.586003 2.21652 
1 2.61821 -0.129256 3.48611 
1 3.68702 -0.267296 3.24186 
1 2.72803 -0.1212 2.39116 
1 3.12648 -3.50614 2.21677 
2 2.77731 -2.86114 2.75998 
1 3.04764 -1.10523 2.86721 
1 3.17465 -1.55861 1.85347 
1 3.24215 -3.3956 3.29974 
1 3.20321 0.633188 2.95086 
2 3.26283 1.47626 3.2407 
1 3.53718 1.31236 2.21247 
2 3.75779 0.537108 3.60816 
1 -0.107792 3.73357 1.89633 
1 -3.33934 2.15981 2.07976 
1 -2.58716 1.97782 2.8466 
1 -2.47411 2.77878 2.07521 
1 -2.74803 2.90488 3.27546 
1 -3.48653 3.34541 2.71999 
2 -2.1661 3.5806 3.30927 
1 -2.49237 3.72822 2.48673 
2 -2.98193 2.12323 3.6424 
1 -1.77799 2.87819 2.88506 
2 -1.72915 3.39861 2.13952 
1 -1.47668 1.92156 2.63821 
2 -1.33311 2.28836 3.42701 
1 -0.879486 3.13373 2.38355 
1 -0.685137 2.87724 3.36461 
2 -0.660099 2.30561 2.66446 
1 -0.0920985 2.54467 2.01452 
2 -0.0774741 3.07335 2.76326 
1 0.223766 2.22049 2.96048 
1 0.356775 3.13292 3.59378 
1 0.736235 3.12268 2.47943 
1 0.931562 2.16433 2.10049 
1 1.24755 2.49309 3.19993 
1 1.40056 3.5651 3.21414 
1 2.09714 2.82704 2.62655 
2 2.12554 2.14489 3.2485 
2 2.47492 2.61738 1.84961 
1 3.75805 2.23196 3.05565 
1 2.77498 1.98673 2.63254 
1 3.16782 2.89872 2.26357 
1 3.08246 3.03868 3.32627 
