ITEM: TIMESTEP
376
ITEM: NUMBER OF ATOMS
500
ITEM: BOX BOUNDS xy xz yz pp pp pp
-3.7345 3.76438 0.029876
-3.7345 3.7345 0
-3.7345 3.7345 0
ITEM: ATOMS type xu yu zu 
1 0.651213 -2.30321 2.43923 
1 -2.71259 -1.41313 -0.308022 
1 2.01149 -1.86536 -3.1579 
1 -0.351887 -0.202347 -0.0774949 
1 1.18604 -2.48402 -0.501432 
1 -1.55357 -3.6283 2.94551 
1 2.06682 3.29167 -2.53731 
1 -1.21608 -0.156798 2.73942 
1 2.16616 -0.331722 -1.48163 
1 -3.38995 -2.19981 1.99547 
1 1.17435 1.84783 1.09583 
1 -1.74271 -2.05265 1.0239 
1 -1.25023 -0.000807859 -3.07664 
1 2.00887 2.90201 3.73351 
1 -2.14443 -0.564128 -2.99066 
1 0.937981 0.916451 -0.415688 
1 1.01453 -0.742962 2.17189 
1 -1.26073 0.903062 2.79855 
1 -3.37198 -2.23303 -0.18246 
1 -2.78597 -1.71114 0.720887 
1 -3.53896 1.48909 -2.34387 
1 -2.23609 -1.39112 -1.28838 
1 2.0537 1.85934 1.69626 
1 -2.43799 2.57605 0.998163 
1 -2.48691 -2.35667 -3.58542 
1 1.46874 -3.37532 -0.975259 
1 -1.74261 -1.95233 3.10616 
1 -0.727144 1.42954 -0.969701 
1 0.838071 0.973399 -3.16893 
1 -2.82987 0.148345 -2.48898 
1 3.05253 -2.75534 0.551231 
1 -2.62772 -2.64133 1.28705 
1 -1.20311 -0.795469 0.0205063 
1 3.60693 -0.208702 3.2453 
1 3.27821 0.00278963 -3.19346 
1 -2.2742 0.826552 0.15413 
1 -2.93048 0.435129 -0.608594 
1 -1.84457 -1.02267 2.55738 
1 -2.29906 -0.0463828 2.55096 
1 2.78906 2.10548 -3.71605 
1 3.00957 -1.99025 -1.52276 
1 -0.463242 -3.58311 2.98003 
1 -0.0205985 -1.89892 -2.39948 
1 0.503392 -3.30867 2.51541 
1 0.8118 -0.0645357 -2.75557 
1 3.09046 2.12862 1.55998 
1 2.38297 -0.721959 -0.54115 
1 -2.45093 1.75145 1.76643 
1 2.83229 -0.609813 1.47857 
1 0.633639 -0.687021 0.12481 
1 -1.16248 1.04689 -2.75759 
1 -1.54267 2.70585 -1.54528 
1 -3.07728 -1.0014 -2.42773 
1 -0.73683 -0.172625 0.926392 
1 2.42655 -0.842867 -3.13151 
1 -1.86651 2.85293 2.884 
1 0.944427 -3.56732 -1.89666 
1 2.17209 -2.94388 2.13338 
1 0.847851 2.16354 2.09509 
1 -0.85811 -1.32091 2.91578 
1 -0.502064 2.82166 0.026743 
1 0.141412 2.21152 2.95096 
1 1.79491 0.68054 -1.65953 
1 -3.40737 2.14439 2.06727 
1 0.582865 -3.22414 3.57474 
1 -3.07965 -3.60872 3.51359 
1 -1.69998 1.68826 -1.31086 
1 -3.36789 -3.28855 1.64409 
1 -0.172831 -2.57114 3.17712 
1 -0.579111 -1.85631 -0.305188 
1 -3.51615 2.97864 -2.4611 
1 -0.703641 1.73959 3.34601 
1 1.14456 -1.67313 1.70504 
1 1.35037 -1.05472 -2.81654 
1 0.619722 -3.46201 -0.358208 
1 1.36008 -3.70625 -3.18492 
1 -1.57938 2.56728 1.68469 
1 2.50165 -3.68971 -3.44793 
1 1.55702 2.3332 -2.0153 
1 -3.05704 -3.09588 -2.89141 
1 -0.0167119 -0.679319 2.62464 
1 -1.27726 -3.45238 -2.90558 
1 1.89546 0.700072 -3.35835 
1 -1.07634 2.20882 -3.23816 
1 3.27699 2.28392 -1.9643 
1 -2.88563 -0.350728 1.73867 
1 -0.514775 1.4968 2.28585 
1 2.5032 -3.64805 -0.742996 
1 1.3087 0.225919 0.806603 
1 -3.24907 -0.407407 -3.32163 
1 -0.497418 -0.343106 3.58044 
1 -3.01652 -2.03302 2.99463 
1 2.16026 -2.01327 1.63813 
1 -1.11843 3.5475 0.474901 
1 0.680463 0.146103 2.60784 
1 -2.32492 -2.87297 2.98632 
1 2.66161 -0.0943711 2.3887 
1 -0.559943 1.75889 0.212904 
1 -1.91071 -3.24004 -1.22385 
1 -2.1212 0.726413 -3.0094 
1 3.09528 -2.60444 1.64103 
1 0.522514 -1.70969 -0.224784 
1 -3.56403 -1.20424 3.3932 
1 1.26014 0.818557 3.2611 
1 -3.527 2.2276 -0.286632 
1 2.9374 1.1371 1.17323 
1 0.74604 0.824341 1.44386 
1 -0.0246347 -2.48764 0.336695 
1 0.190684 -1.58299 3.20637 
1 2.13665 2.26064 -2.89386 
1 2.96956 0.932349 -3.48398 
1 3.6855 -2.53031 -2.22572 
1 2.09002 -1.08068 2.20087 
1 0.770889 0.778216 -2.09066 
1 -1.54369 1.49518 -0.174938 
1 3.65614 -0.572949 2.22707 
1 -2.58952 1.73725 -1.89649 
1 0.273163 -2.24878 -3.37176 
1 -2.80936 3.64958 -1.35703 
1 1.5441 -0.274695 -3.54341 
1 -2.5376 -0.585617 3.40067 
1 2.94261 -1.86598 -2.606 
1 2.2804 -2.27624 -0.0176813 
1 2.27863 -3.62189 2.94029 
1 1.52616 1.72458 -3.61507 
1 2.18819 -2.61011 -1.02321 
1 1.74117 1.37211 -2.50879 
1 -2.19173 3.38956 0.305826 
1 -1.15612 0.497657 0.0501634 
1 2.9613 -1.05912 2.87588 
1 2.69277 1.99765 2.62408 
1 -0.286236 -1.1575 0.452412 
1 -1.64425 -3.31746 -0.207563 
1 -0.172613 0.363552 -2.92213 
1 -0.975389 3.11958 2.37109 
1 -1.08482 -2.64006 2.64519 
1 0.108915 -2.56661 -0.754623 
1 -1.77426 0.692478 -0.884665 
1 1.93084 -1.11128 1.06159 
1 -0.871791 1.87224 1.24875 
1 -2.58745 3.72447 2.50174 
1 2.25149 2.40326 -0.155254 
1 0.439688 -0.0105983 -0.780948 
1 -2.47411 -2.35277 -0.852354 
1 -2.24265 -3.67032 -2.41068 
1 -3.53592 3.13193 1.66066 
1 2.10519 -2.91687 -2.85581 
1 2.10905 1.60493 0.556779 
1 1.47276 3.70854 1.09218 
1 -2.91313 1.6431 0.405801 
1 1.63207 -3.17481 0.142469 
1 -3.48463 2.27483 0.997471 
1 2.54277 -0.0948646 3.48792 
1 -0.828354 -0.739149 1.93816 
1 2.97879 -1.59572 -0.515857 
1 0.116245 3.69122 -1.26201 
1 -3.07363 -0.430667 0.0745422 
1 -1.86081 -2.54599 -2.75143 
1 -0.773945 2.85982 3.34834 
1 3.23385 -3.6315 1.12233 
1 2.92477 -0.314275 -2.24341 
1 -0.309082 1.06588 -2.11732 
1 -2.89139 -1.118 2.49187 
1 -3.62449 2.72859 -3.50974 
1 2.34279 -1.18137 -2.08525 
1 3.66505 2.25873 3.0358 
1 1.46239 -2.80666 2.94493 
1 2.8452 3.23899 -1.61719 
1 3.23878 -3.33463 3.31166 
1 -2.58587 2.44306 -1.09645 
1 3.11832 2.86532 -0.598753 
1 -0.176376 2.54067 2.00598 
1 3.49752 -1.09228 -1.82627 
1 2.00737 2.83856 2.62889 
1 -0.538136 -0.911228 -1.62962 
1 -2.38585 3.62107 1.4157 
1 -2.18368 -3.36951 -3.46579 
1 1.23548 1.87156 -0.00927443 
1 -3.43551 1.26351 3.06199 
1 1.46643 2.41649 -0.911931 
1 0.147957 1.67965 1.4554 
1 -2.64311 -2.83634 -1.87942 
1 0.432887 -0.946941 -2.23467 
1 -3.08118 3.16759 -0.375238 
1 2.98407 2.87189 -2.89341 
1 1.16667 -2.48052 -1.55753 
1 -2.24069 2.36907 -0.0908883 
1 -2.9592 0.374695 3.3663 
1 2.52484 0.643799 -2.49101 
1 2.45108 0.172922 0.805628 
1 2.06165 -2.21244 -2.05333 
1 -3.37157 -0.204319 -1.62817 
1 1.3131 3.5534 3.21425 
1 0.0271015 1.94317 -1.65522 
1 -2.55959 2.77817 2.07499 
1 -0.305833 -1.9543 2.2473 
1 -1.23199 3.63144 1.51838 
1 -1.54564 1.90732 2.62552 
1 0.102461 -1.15698 1.62808 
1 -2.31813 0.992245 2.72908 
1 0.106922 -0.046783 1.68969 
1 -0.47938 -3.33107 -0.187566 
1 -0.552618 -1.92502 1.14922 
1 -0.733446 -3.08692 -1.22876 
1 0.192326 0.935315 -1.20146 
1 -3.57463 -1.12133 -0.845703 
1 3.12638 -1.55633 1.89277 
1 -3.69433 -0.370104 0.950701 
1 -1.23063 3.70251 -1.87249 
1 0.926715 -0.678253 1.14432 
1 3.00576 3.07794 3.34089 
1 -2.59989 1.45634 -0.690244 
1 -0.992111 1.94555 -2.17597 
1 -3.52276 1.72163 -1.27561 
1 1.07502 -0.212601 -1.69746 
1 0.622691 2.86474 -1.76155 
1 2.84961 -0.722238 0.424159 
1 2.77208 1.26176 -1.64054 
1 -2.52476 2.81126 -2.09484 
1 -1.74494 -1.73325 -0.0328425 
1 -1.3892 2.48249 0.541422 
1 3.72906 1.66365 -3.47255 
1 -2.64351 1.96317 2.8283 
1 -2.15749 -0.914729 0.484362 
1 -2.36038 -2.56772 0.231861 
1 0.457425 3.34249 -2.78003 
1 1.19337 2.6648 -3.05895 
1 1.3127 -1.60694 2.77799 
1 0.47881 0.149765 3.67583 
1 -0.921881 -2.70163 -2.20251 
1 2.29437 1.26686 3.28558 
1 3.45829 1.30626 2.1798 
1 2.38667 3.50159 1.64193 
1 -0.0798829 -0.994579 -0.687842 
1 -0.474548 -0.646486 -2.69842 
1 -2.44548 0.658576 1.72333 
1 1.73927 3.22815 -1.51572 
1 -1.54344 2.921 -2.57767 
1 0.33644 -0.830688 -3.35811 
1 2.01213 -1.14341 3.40612 
1 -0.39778 -3.32833 0.91047 
1 1.8348 -0.191117 1.65099 
1 0.676348 2.85729 -0.350079 
1 0.316321 2.35243 0.586497 
1 -2.71201 -1.36377 -3.39202 
1 3.14017 -2.76291 -3.14747 
1 3.36797 -2.1738 2.86739 
1 2.36171 2.61409 0.945953 
1 -3.30276 0.45557 2.34814 
1 1.65157 3.30051 -0.324862 
1 -3.33506 1.23356 1.3796 
1 -2.26895 -1.21483 1.5366 
1 -1.63335 1.39089 3.70414 
1 -1.94529 1.78263 -2.72884 
1 3.55299 0.52301 -2.20465 
1 1.94325 1.41447 -0.759772 
1 -0.330736 -3.27022 -3.3926 
1 2.91165 -1.68207 -3.72042 
1 -2.68759 1.34999 -3.65887 
1 -0.599519 3.19841 -3.13392 
1 0.29734 0.229594 0.616852 
1 -1.50664 -0.764204 3.59619 
1 1.09182 -2.11078 -2.56707 
1 -3.59374 3.38561 2.7233 
1 -3.36749 0.732974 -3.12677 
1 2.41509 2.25823 -1.33947 
1 -1.39458 -0.649945 -2.20011 
1 1.16051 2.48936 3.19713 
1 1.54661 2.79862 1.64477 
1 3.38562 0.326733 1.65372 
1 1.23711 -2.77403 1.61315 
1 0.190157 1.1417 3.4077 
1 -2.47366 0.0246269 0.8505 
1 3.15377 -2.667 -0.524521 
1 -3.61209 1.18041 -0.26428 
1 -1.35196 -2.8535 3.63483 
1 -1.3109 -1.75652 1.96838 
1 -3.30835 0.566019 0.52504 
1 0.257394 1.79769 -0.495153 
1 -2.85455 -2.08457 -2.58044 
1 1.50103 0.637665 2.23925 
1 -1.64823 -1.6765 -3.34651 
1 -0.777339 0.696174 3.71576 
1 0.468772 1.28937 0.498932 
1 -0.0776118 2.39346 -2.70711 
1 -1.76233 -3.15608 0.904186 
1 -1.02311 -1.60599 -2.45274 
1 1.54723 -2.10845 0.746985 
1 3.53934 0.651574 -1.12247 
1 2.45559 1.02811 2.21419 
1 3.06656 2.92621 2.27044 
1 2.38559 -2.66187 3.56471 
1 3.17506 -0.33666 -1.12712 
1 3.02857 -3.05929 -1.52749 
1 1.32889 -2.62373 -3.49077 
1 -0.206092 3.7351 1.90345 
1 0.706006 -3.12817 0.727958 
1 -3.19198 3.40757 0.68637 
1 -2.65618 -0.526229 -0.885879 
1 -2.19928 2.30109 -3.65344 
1 -1.87522 -3.11511 2.02412 
1 -3.58133 -3.53817 -2.02636 
1 3.64701 3.72612 -3.22344 
1 2.93423 1.62041 -2.6886 
1 0.384275 -1.6776 -1.37698 
1 1.3133 -1.363 -1.80102 
1 -0.454718 0.894021 0.991165 
1 0.267658 3.12093 3.5817 
1 -0.166884 0.83161 -0.198796 
1 2.74801 -1.74482 0.7914 
1 -3.53355 2.8279 -1.35705 
1 -0.956124 3.41294 -0.811701 
1 0.518893 2.01994 -3.54284 
1 -3.37075 -1.25415 1.52133 
1 0.74848 1.79393 -2.46555 
1 1.45804 3.75838 2.16422 
1 -2.00298 -0.117504 -0.172769 
1 3.11924 1.92326 0.407097 
1 2.39315 3.56695 0.450029 
1 -2.99676 0.802517 -1.62782 
1 0.243989 3.43285 0.435767 
1 0.528266 -1.74957 0.853568 
1 -0.606463 -1.35689 -3.5047 
1 -0.645087 -1.99383 -1.45108 
1 -1.62664 3.19197 -3.59761 
1 1.056 1.54371 -1.38453 
1 3.00729 1.69714 -0.656175 
1 1.07886 -1.61474 -3.65746 
1 -2.85671 2.88232 3.23485 
1 1.59282 1.66837 2.64134 
1 0.55903 1.20753 2.42112 
1 -1.24943 -1.31512 -0.895203 
1 -0.516411 2.93213 1.10054 
1 -2.31133 -2.0881 2.1812 
1 1.86999 0.670711 0.0471116 
1 -1.0498 0.295749 -2.0019 
1 1.70314 -0.235829 2.82539 
1 -1.92917 1.60584 0.850505 
1 3.12979 -3.46913 2.23439 
1 0.875243 -0.746721 3.22086 
1 -1.20761 2.37278 -0.605815 
1 -0.26133 1.44662 -3.13489 
1 -3.37607 -3.01609 0.540172 
1 3.11941 0.6699 2.94729 
1 1.85497 -0.190839 -2.47243 
1 -2.72745 -3.32438 -0.390439 
1 1.03522 -0.907238 -0.864285 
1 -0.936768 -2.78951 1.6272 
1 -1.73642 -2.23036 -1.71162 
1 -2.07477 -1.4408 -2.37182 
1 2.91037 -3.56169 -2.45693 
1 -2.67407 3.18209 -3.17679 
1 3.42631 0.0437012 -0.109419 
1 -3.20489 -1.84177 -1.59154 
1 0.646843 3.11892 2.4778 
1 3.31344 -3.61862 0.024341 
1 2.89854 0.913653 0.130574 
1 1.55794 -1.51583 -0.18012 
1 3.31764 2.93367 0.502718 
1 -1.58365 0.582913 1.00517 
1 -1.27604 -1.08566 1.05118 
1 -1.98318 0.823532 -1.95248 
1 -3.71309 -1.26843 0.243808 
1 1.52499 0.0456707 -0.727675 
1 0.158073 -2.75543 -1.81346 
1 -0.524264 2.91825 -1.91449 
1 2.31637 -2.01523 2.71847 
1 -1.59252 -0.340178 -1.15391 
1 -0.692959 0.30074 -0.993413 
1 2.04215 -3.29081 -1.86724 
1 2.06042 -1.57255 -1.10348 
1 0.163466 -2.68454 1.56008 
1 3.61835 -3.71752 -0.955876 
1 -2.94909 2.15009 -2.89541 
1 -1.51616 1.24838 1.81138 
1 3.44037 -0.988738 -2.90544 
1 1.86221 0.919431 1.3083 
1 0.0113422 0.0153878 -1.847 
1 -1.75275 -0.266105 1.62699 
1 -3.42217 -3.01821 2.66843 
1 -0.875351 0.39263 1.84671 
1 -0.295601 0.457507 2.73056 
1 -1.37999 -2.42122 -0.727467 
1 -0.772289 -2.32998 -3.17576 
1 -3.72932 -2.07815 0.96281 
1 2.17549 -2.97494 1.06174 
1 1.70664 -0.512463 0.209304 
1 0.561305 3.11945 1.39669 
1 -0.173093 2.68669 -0.951187 
1 2.52495 0.482804 -0.814427 
1 -3.49279 -2.68682 3.66602 
1 0.618232 -3.06101 -2.7734 
1 -1.08252 -2.5614 0.349805 
1 -0.309466 -3.56109 -2.31326 
1 -1.85982 0.295502 3.51139 
1 -2.34623 -0.495422 -1.87246 
1 -3.43343 -2.77966 -1.16048 
1 1.33115 2.7878 0.561105 
1 -3.63713 -1.87875 -3.22358 
1 -2.02526 3.27176 -0.749315 
2 2.45857 2.60738 -2.14725 
2 3.69239 1.30676 0.616962 
2 1.27942 1.40404 1.85371 
2 -1.88472 0.0753091 -2.41962 
2 2.79281 -1.11628 -1.27575 
2 0.959606 3.36902 -1.04639 
2 1.33041 1.11543 0.598567 
2 0.0806741 -0.551883 0.950305 
2 1.20303 -1.26005 0.55932 
2 -1.69725 0.455304 2.1729 
2 -1.46814 3.0498 -0.129013 
2 2.5122 0.0107221 -0.0545481 
2 -3.00107 2.60303 0.319483 
2 -1.02315 -3.44596 2.26451 
2 -1.4227 2.27163 3.41933 
2 -3.27442 2.26807 -1.9968 
2 -3.48992 -0.235822 -0.74299 
2 -3.23439 0.351892 1.37676 
2 3.18603 1.50067 3.24734 
2 -1.7323 -3.0509 -2.05929 
2 -0.738618 2.29416 2.65358 
2 3.30415 -2.03273 0.154578 
2 -2.59951 0.990135 0.93977 
2 -3.05475 1.31143 2.24948 
2 3.31243 0.388449 0.749717 
2 1.38769 -2.9081 -2.32828 
2 1.23559 3.16028 -2.31684 
2 3.60881 2.21982 -2.7962 
2 1.18684 -1.76337 -0.990874 
2 -1.27586 -0.926601 -3.02709 
2 2.51944 -3.13955 -0.0287845 
2 -1.83 3.39147 2.14415 
2 1.09593 3.6091 0.293462 
2 1.00479 0.57429 -1.24346 
2 2.75868 -2.825 2.76798 
2 0.874791 1.64943 3.16954 
2 3.36681 -1.18021 1.04446 
2 3.11995 -0.77571 -3.72452 
2 -0.175575 -2.73379 -2.67375 
2 -1.16485 1.2476 0.599151 
2 0.576068 -1.52412 -2.92193 
2 2.78132 -2.68723 -2.29442 
2 -1.59606 -0.245147 0.654986 
2 0.349211 -0.693478 -1.39634 
2 -1.02213 -1.66414 0.442922 
2 -0.798822 2.22412 -1.37435 
2 -2.90437 -0.789331 0.925959 
2 -1.7412 3.14255 1.01344 
2 2.27185 2.97459 -0.86228 
2 -0.90074 -2.07665 3.42722 
2 -1.00757 -3.71262 3.68763 
2 2.4053 0.0331232 -3.11847 
2 2.30002 1.47682 -3.28231 
2 0.624892 2.30635 -1.09382 
2 -0.0255602 3.40579 -0.43704 
2 -1.14043 1.15332 -1.76537 
2 1.78782 -3.30412 3.62602 
2 -3.08315 2.11027 3.6064 
2 -0.264472 -2.87772 2.32613 
2 -2.42239 -1.4215 3.21159 
2 3.6667 -1.99572 -0.92207 
2 -2.25462 3.52881 3.32616 
2 -0.275165 2.37161 -3.59973 
2 0.665098 -3.10396 -1.1725 
2 -2.54716 0.0902425 -3.39692 
2 1.9163 1.58144 -1.65095 
2 -0.825779 -0.54683 -0.769271 
2 3.68898 0.604967 3.59706 
2 1.44667 0.559273 -2.6053 
2 -2.75299 1.06091 -2.47755 
2 -2.72726 -2.88473 2.15062 
2 3.76188 -1.4492 2.51441 
2 0.848526 -2.36971 0.29049 
2 -3.65151 -1.67651 -2.37634 
2 2.18127 0.499176 2.88025 
2 -2.02351 3.42478 -1.63573 
2 -0.0674844 0.837251 1.85351 
2 -3.12311 -0.310869 2.76555 
2 0.98989 0.117791 -0.0159182 
2 0.661729 -3.4768 1.61844 
2 3.09292 2.99943 1.3608 
2 -1.44604 -1.38515 -1.72612 
2 -2.38513 0.209944 -1.33438 
2 -1.95679 -0.953864 -0.487011 
2 -3.01962 -0.997139 -1.54155 
2 -0.169407 3.06689 2.74955 
2 0.496453 -1.43021 2.38434 
2 2.03972 2.14988 3.24427 
2 2.38254 2.63047 1.85183 
2 2.3632 -1.36652 0.0941419 
2 -2.58752 -3.35752 0.66751 
2 0.755319 -2.32583 3.32742 
2 1.75767 -2.04663 3.42611 
2 3.25642 -0.781827 -0.349728 
2 -3.64643 -0.290086 -2.49415 
2 2.5098 0.378871 1.64341 
2 1.56946 -2.26382 2.25531 
2 2.80668 0.348676 -1.65594 
2 0.993582 0.036737 1.73418 
2 -3.56601 -3.09029 -0.340429 
