LAMMPS (28 Feb 2012)
echo none
  triclinic box = (-3.7345 -3.7345 -3.7345) to (3.7345 3.7345 3.7345) with tilt (-8.88178e-16 0 0)
  1 by 1 by 1 MPI processor grid
  500 atoms
  500 velocities
WARNING: No fixes defined, atoms won't move (verlet.cpp:52)
Memory usage per processor = 1.7156 Mbytes
Step Temp E_pair E_mol TotEng Press 
       0   0.49133947   -7.6547892            0   -6.9192541  -0.91828237 
Loop time of 0 on 1 procs for 0 steps with 500 atoms

Pair  time (%) = 0 (0)
Neigh time (%) = 0 (0)
Comm  time (%) = 0 (0)
Outpt time (%) = 0 (0)
Other time (%) = 0 (0)

Nlocal:    500 ave 500 max 500 min
Histogram: 1 0 0 0 0 0 0 0 0 0
Nghost:    2182 ave 2182 max 2182 min
Histogram: 1 0 0 0 0 0 0 0 0 0
Neighs:    22891 ave 22891 max 22891 min
Histogram: 1 0 0 0 0 0 0 0 0 0

Total # of neighbors = 22891
Ave neighs/atom = 45.782
Neighbor list builds = 0
Dangerous builds = 0
  500 settings made for image
  triclinic box = (-3.7345 -3.7345 -3.7345) to (3.7345 3.7345 3.7345) with tilt (-8.88178e-16 0 0)
WARNING: Resetting reneighboring criteria during minimization (min.cpp:166)
Memory usage per processor = 2.43658 Mbytes
Step Temp E_pair E_mol TotEng Press 
       0   0.49133947   -7.6547892            0   -6.9192541  -0.91828237 
       1   0.49133947   -7.6547892            0   -6.9192541  -0.91828237 
Loop time of 0.0104332 on 1 procs for 1 steps with 500 atoms

Minimization stats:
  Stopping criterion = linesearch alpha is zero
  Energy initial, next-to-last, final = 
        -7.65478924881     -7.65478924881     -7.65478924881
  Force two-norm initial, final = 0.0762375 0.0762375
  Force max component initial, final = 0.0148795 0.0148795
  Final line search alpha, max atom move = 0.000976562 1.45308e-05
  Iterations, force evaluations = 1 11

Pair  time (%) = 0.00996971 (95.5576)
Neigh time (%) = 0 (0)
Comm  time (%) = 0.000300646 (2.88163)
Outpt time (%) = 0 (0)
Other time (%) = 0.00016284 (1.56079)

Nlocal:    500 ave 500 max 500 min
Histogram: 1 0 0 0 0 0 0 0 0 0
Nghost:    2182 ave 2182 max 2182 min
Histogram: 1 0 0 0 0 0 0 0 0 0
Neighs:    22891 ave 22891 max 22891 min
Histogram: 1 0 0 0 0 0 0 0 0 0

Total # of neighbors = 22891
Ave neighs/atom = 45.782
Neighbor list builds = 0
Dangerous builds = 0
WARNING: No fixes defined, atoms won't move (verlet.cpp:52)
Memory usage per processor = 1.7156 Mbytes
mystep PotEng Xy Xz Yz Lx 
           0   -7.6547892 -8.8817842e-16            0            0        7.469 
Loop time of 0 on 1 procs for 0 steps with 500 atoms

Pair  time (%) = 0 (0)
Neigh time (%) = 0 (0)
Comm  time (%) = 0 (0)
Outpt time (%) = 0 (0)
Other time (%) = 0 (0)

Nlocal:    500 ave 500 max 500 min
Histogram: 1 0 0 0 0 0 0 0 0 0
Nghost:    2182 ave 2182 max 2182 min
Histogram: 1 0 0 0 0 0 0 0 0 0
Neighs:    22891 ave 22891 max 22891 min
Histogram: 1 0 0 0 0 0 0 0 0 0

Total # of neighbors = 22891
Ave neighs/atom = 45.782
Neighbor list builds = 0
Dangerous builds = 0
WARNING: Resetting reneighboring criteria during minimization (min.cpp:166)
Memory usage per processor = 2.43658 Mbytes
mystep PotEng Xy Xz Yz Lx 
           0   -7.6547892 -8.8817842e-16            0            0        7.469 
           0   -7.6547892 -8.8817842e-16            0            0        7.469 
Loop time of 0.010437 on 1 procs for 1 steps with 500 atoms

Minimization stats:
  Stopping criterion = linesearch alpha is zero
  Energy initial, next-to-last, final = 
        -7.65478924881     -7.65478924881     -7.65478924881
  Force two-norm initial, final = 0.0762375 0.0762375
  Force max component initial, final = 0.0148795 0.0148795
  Final line search alpha, max atom move = 0.000976562 1.45308e-05
  Iterations, force evaluations = 1 11

Pair  time (%) = 0.00998282 (95.6483)
Neigh time (%) = 0 (0)
Comm  time (%) = 0.000297546 (2.85088)
Outpt time (%) = 0 (0)
Other time (%) = 0.000156641 (1.50082)

Nlocal:    500 ave 500 max 500 min
Histogram: 1 0 0 0 0 0 0 0 0 0
Nghost:    2182 ave 2182 max 2182 min
Histogram: 1 0 0 0 0 0 0 0 0 0
Neighs:    22891 ave 22891 max 22891 min
Histogram: 1 0 0 0 0 0 0 0 0 0

Total # of neighbors = 22891
Ave neighs/atom = 45.782
Neighbor list builds = 0
Dangerous builds = 0
Memory usage per processor = 1.7156 Mbytes
mystep PotEng Xy Xz Yz Lx 
           1   -7.6547892 -8.8817842e-16            0            0        7.469 
           1   -7.6547892     0.007469            0            0        7.469 
Loop time of 0.000880957 on 1 procs for 1 steps with 500 atoms

Pair  time (%) = 0.000828028 (93.9919)
Neigh time (%) = 0 (0)
Comm  time (%) = 2.47955e-05 (2.81461)
Outpt time (%) = 9.05991e-06 (1.02842)
Other time (%) = 1.90735e-05 (2.16509)

Nlocal:    500 ave 500 max 500 min
Histogram: 1 0 0 0 0 0 0 0 0 0
Nghost:    2182 ave 2182 max 2182 min
Histogram: 1 0 0 0 0 0 0 0 0 0
Neighs:    22891 ave 22891 max 22891 min
Histogram: 1 0 0 0 0 0 0 0 0 0

Total # of neighbors = 22891
Ave neighs/atom = 45.782
Neighbor list builds = 0
Dangerous builds = 0
WARNING: No fixes defined, atoms won't move (verlet.cpp:52)
Memory usage per processor = 1.7156 Mbytes
mystep PotEng Xy Xz Yz Lx 
           1   -7.6547483     0.007469            0            0        7.469 
Loop time of 0 on 1 procs for 0 steps with 500 atoms

Pair  time (%) = 0 (0)
Neigh time (%) = 0 (0)
Comm  time (%) = 0 (0)
Outpt time (%) = 0 (0)
Other time (%) = 0 (0)

Nlocal:    500 ave 500 max 500 min
Histogram: 1 0 0 0 0 0 0 0 0 0
Nghost:    2182 ave 2182 max 2182 min
Histogram: 1 0 0 0 0 0 0 0 0 0
Neighs:    22892 ave 22892 max 22892 min
Histogram: 1 0 0 0 0 0 0 0 0 0

Total # of neighbors = 22892
Ave neighs/atom = 45.784
Neighbor list builds = 0
Dangerous builds = 0
WARNING: Resetting reneighboring criteria during minimization (min.cpp:166)
Memory usage per processor = 2.43658 Mbytes
mystep PotEng Xy Xz Yz Lx 
           2   -7.6547483     0.007469            0            0        7.469 
           2   -7.6547601     0.007469            0            0        7.469 
Loop time of 0.137157 on 1 procs for 16 steps with 500 atoms

Minimization stats:
  Stopping criterion = energy tolerance
  Energy initial, next-to-last, final = 
        -7.65474833155      -7.6547600546     -7.65476011524
  Force two-norm initial, final = 1.41295 0.175882
  Force max component initial, final = 0.161668 0.0261252
  Final line search alpha, max atom move = 0.00195312 5.10258e-05
  Iterations, force evaluations = 16 157

Pair  time (%) = 0.131085 (95.5731)
Neigh time (%) = 0 (0)
Comm  time (%) = 0.0039506 (2.88034)
Outpt time (%) = 0 (0)
Other time (%) = 0.00212121 (1.54655)

Nlocal:    500 ave 500 max 500 min
Histogram: 1 0 0 0 0 0 0 0 0 0
Nghost:    2182 ave 2182 max 2182 min
Histogram: 1 0 0 0 0 0 0 0 0 0
Neighs:    22892 ave 22892 max 22892 min
Histogram: 1 0 0 0 0 0 0 0 0 0

Total # of neighbors = 22892
Ave neighs/atom = 45.784
Neighbor list builds = 0
Dangerous builds = 0
WARNING: No fixes defined, atoms won't move (verlet.cpp:52)
Memory usage per processor = 1.7156 Mbytes
mystep PotEng Xy Xz Yz Lx 
           2   -7.6547601     0.007469            0            0        7.469 
Loop time of 9.53674e-07 on 1 procs for 0 steps with 500 atoms

Pair  time (%) = 0 (0)
Neigh time (%) = 0 (0)
Comm  time (%) = 0 (0)
Outpt time (%) = 0 (0)
Other time (%) = 9.53674e-07 (100)

Nlocal:    500 ave 500 max 500 min
Histogram: 1 0 0 0 0 0 0 0 0 0
Nghost:    2182 ave 2182 max 2182 min
Histogram: 1 0 0 0 0 0 0 0 0 0
Neighs:    22886 ave 22886 max 22886 min
Histogram: 1 0 0 0 0 0 0 0 0 0

Total # of neighbors = 22886
Ave neighs/atom = 45.772
Neighbor list builds = 0
Dangerous builds = 0
Memory usage per processor = 1.7156 Mbytes
mystep PotEng Xy Xz Yz Lx 
           3   -7.6547601     0.007469            0            0        7.469 
           3   -7.6547601     0.014938            0            0        7.469 
Loop time of 0.000874996 on 1 procs for 1 steps with 500 atoms

Pair  time (%) = 0.000827789 (94.6049)
Neigh time (%) = 0 (0)
Comm  time (%) = 2.5034e-05 (2.86104)
Outpt time (%) = 9.05991e-06 (1.03542)
Other time (%) = 1.3113e-05 (1.49864)

Nlocal:    500 ave 500 max 500 min
Histogram: 1 0 0 0 0 0 0 0 0 0
Nghost:    2182 ave 2182 max 2182 min
Histogram: 1 0 0 0 0 0 0 0 0 0
Neighs:    22886 ave 22886 max 22886 min
Histogram: 1 0 0 0 0 0 0 0 0 0

Total # of neighbors = 22886
Ave neighs/atom = 45.772
Neighbor list builds = 0
Dangerous builds = 0
WARNING: No fixes defined, atoms won't move (verlet.cpp:52)
Memory usage per processor = 1.7156 Mbytes
mystep PotEng Xy Xz Yz Lx 
           3   -7.6547043     0.014938            0            0        7.469 
Loop time of 0 on 1 procs for 0 steps with 500 atoms

Pair  time (%) = 0 (0)
Neigh time (%) = 0 (0)
Comm  time (%) = 0 (0)
Outpt time (%) = 0 (0)
Other time (%) = 0 (0)

Nlocal:    500 ave 500 max 500 min
Histogram: 1 0 0 0 0 0 0 0 0 0
Nghost:    2182 ave 2182 max 2182 min
Histogram: 1 0 0 0 0 0 0 0 0 0
Neighs:    22889 ave 22889 max 22889 min
Histogram: 1 0 0 0 0 0 0 0 0 0

Total # of neighbors = 22889
Ave neighs/atom = 45.778
Neighbor list builds = 0
Dangerous builds = 0
WARNING: Resetting reneighboring criteria during minimization (min.cpp:166)
Memory usage per processor = 2.43658 Mbytes
mystep PotEng Xy Xz Yz Lx 
           4   -7.6547043     0.014938            0            0        7.469 
           4   -7.6548384     0.014938            0            0        7.469 
Loop time of 1.24848 on 1 procs for 163 steps with 500 atoms

Minimization stats:
  Stopping criterion = energy tolerance
  Energy initial, next-to-last, final = 
        -7.65470430961      -7.6548383332     -7.65483840795
  Force two-norm initial, final = 1.37047 0.129484
  Force max component initial, final = 0.168688 0.0369057
  Final line search alpha, max atom move = 0.00195312 7.20814e-05
  Iterations, force evaluations = 163 1429

Pair  time (%) = 1.18545 (94.9508)
Neigh time (%) = 0.00698996 (0.559876)
Comm  time (%) = 0.0361254 (2.89354)
Outpt time (%) = 0 (0)
Other time (%) = 0.0199234 (1.59581)

Nlocal:    500 ave 500 max 500 min
Histogram: 1 0 0 0 0 0 0 0 0 0
Nghost:    2190 ave 2190 max 2190 min
Histogram: 1 0 0 0 0 0 0 0 0 0
Neighs:    22909 ave 22909 max 22909 min
Histogram: 1 0 0 0 0 0 0 0 0 0

Total # of neighbors = 22909
Ave neighs/atom = 45.818
Neighbor list builds = 4
Dangerous builds = 0
WARNING: No fixes defined, atoms won't move (verlet.cpp:52)
Memory usage per processor = 1.7156 Mbytes
mystep PotEng Xy Xz Yz Lx 
           4   -7.6548384     0.014938            0            0        7.469 
Loop time of 0 on 1 procs for 0 steps with 500 atoms

Pair  time (%) = 0 (0)
Neigh time (%) = 0 (0)
Comm  time (%) = 0 (0)
Outpt time (%) = 0 (0)
Other time (%) = 0 (0)

Nlocal:    500 ave 500 max 500 min
Histogram: 1 0 0 0 0 0 0 0 0 0
Nghost:    2182 ave 2182 max 2182 min
Histogram: 1 0 0 0 0 0 0 0 0 0
Neighs:    22913 ave 22913 max 22913 min
Histogram: 1 0 0 0 0 0 0 0 0 0

Total # of neighbors = 22913
Ave neighs/atom = 45.826
Neighbor list builds = 0
Dangerous builds = 0
Memory usage per processor = 1.7156 Mbytes
mystep PotEng Xy Xz Yz Lx 
           5   -7.6548384     0.014938            0            0        7.469 
           5   -7.6548384     0.022407            0            0        7.469 
Loop time of 0.000891924 on 1 procs for 1 steps with 500 atoms

Pair  time (%) = 0.000838995 (94.0658)
Neigh time (%) = 0 (0)
Comm  time (%) = 2.69413e-05 (3.02058)
Outpt time (%) = 1.00136e-05 (1.12269)
Other time (%) = 1.5974e-05 (1.79096)

Nlocal:    500 ave 500 max 500 min
Histogram: 1 0 0 0 0 0 0 0 0 0
Nghost:    2182 ave 2182 max 2182 min
Histogram: 1 0 0 0 0 0 0 0 0 0
Neighs:    22913 ave 22913 max 22913 min
Histogram: 1 0 0 0 0 0 0 0 0 0

Total # of neighbors = 22913
Ave neighs/atom = 45.826
Neighbor list builds = 0
Dangerous builds = 0
WARNING: No fixes defined, atoms won't move (verlet.cpp:52)
Memory usage per processor = 1.7156 Mbytes
mystep PotEng Xy Xz Yz Lx 
           5   -7.6547998     0.022407            0            0        7.469 
Loop time of 0 on 1 procs for 0 steps with 500 atoms

Pair  time (%) = 0 (0)
Neigh time (%) = 0 (0)
Comm  time (%) = 0 (0)
Outpt time (%) = 0 (0)
Other time (%) = 0 (0)

Nlocal:    500 ave 500 max 500 min
Histogram: 1 0 0 0 0 0 0 0 0 0
Nghost:    2182 ave 2182 max 2182 min
Histogram: 1 0 0 0 0 0 0 0 0 0
Neighs:    22912 ave 22912 max 22912 min
Histogram: 1 0 0 0 0 0 0 0 0 0

Total # of neighbors = 22912
Ave neighs/atom = 45.824
Neighbor list builds = 0
Dangerous builds = 0
WARNING: Resetting reneighboring criteria during minimization (min.cpp:166)
Memory usage per processor = 2.43658 Mbytes
mystep PotEng Xy Xz Yz Lx 
           6   -7.6547998     0.022407            0            0        7.469 
           6   -7.6561653     0.022407            0            0        7.469 
Loop time of 1.24009 on 1 procs for 173 steps with 500 atoms

Minimization stats:
  Stopping criterion = energy tolerance
  Energy initial, next-to-last, final = 
        -7.65479980477     -7.65616527711     -7.65616532172
  Force two-norm initial, final = 1.4067 0.13874
  Force max component initial, final = 0.16538 0.0500869
  Final line search alpha, max atom move = 0.00195312 9.78259e-05
  Iterations, force evaluations = 173 1391

Pair  time (%) = 1.15369 (93.0322)
Neigh time (%) = 0.0297334 (2.39767)
Comm  time (%) = 0.0367465 (2.9632)
Outpt time (%) = 0 (0)
Other time (%) = 0.0199268 (1.60688)

Nlocal:    500 ave 500 max 500 min
Histogram: 1 0 0 0 0 0 0 0 0 0
Nghost:    2182 ave 2182 max 2182 min
Histogram: 1 0 0 0 0 0 0 0 0 0
Neighs:    22914 ave 22914 max 22914 min
Histogram: 1 0 0 0 0 0 0 0 0 0

Total # of neighbors = 22914
Ave neighs/atom = 45.828
Neighbor list builds = 17
Dangerous builds = 0
WARNING: No fixes defined, atoms won't move (verlet.cpp:52)
Memory usage per processor = 1.7156 Mbytes
mystep PotEng Xy Xz Yz Lx 
           6   -7.6561653     0.022407            0            0        7.469 
Loop time of 0 on 1 procs for 0 steps with 500 atoms

Pair  time (%) = 0 (0)
Neigh time (%) = 0 (0)
Comm  time (%) = 0 (0)
Outpt time (%) = 0 (0)
Other time (%) = 0 (0)

Nlocal:    500 ave 500 max 500 min
Histogram: 1 0 0 0 0 0 0 0 0 0
Nghost:    2174 ave 2174 max 2174 min
Histogram: 1 0 0 0 0 0 0 0 0 0
Neighs:    22909 ave 22909 max 22909 min
Histogram: 1 0 0 0 0 0 0 0 0 0

Total # of neighbors = 22909
Ave neighs/atom = 45.818
Neighbor list builds = 0
Dangerous builds = 0
Memory usage per processor = 1.7156 Mbytes
mystep PotEng Xy Xz Yz Lx 
           7   -7.6561653     0.022407            0            0        7.469 
           7   -7.6561653     0.029876            0            0        7.469 
Loop time of 0.000874996 on 1 procs for 1 steps with 500 atoms

Pair  time (%) = 0.000828028 (94.6322)
Neigh time (%) = 0 (0)
Comm  time (%) = 2.5034e-05 (2.86104)
Outpt time (%) = 8.82149e-06 (1.00817)
Other time (%) = 1.3113e-05 (1.49864)

Nlocal:    500 ave 500 max 500 min
Histogram: 1 0 0 0 0 0 0 0 0 0
Nghost:    2174 ave 2174 max 2174 min
Histogram: 1 0 0 0 0 0 0 0 0 0
Neighs:    22909 ave 22909 max 22909 min
Histogram: 1 0 0 0 0 0 0 0 0 0

Total # of neighbors = 22909
Ave neighs/atom = 45.818
Neighbor list builds = 0
Dangerous builds = 0
WARNING: No fixes defined, atoms won't move (verlet.cpp:52)
Memory usage per processor = 1.7156 Mbytes
mystep PotEng Xy Xz Yz Lx 
           7   -7.6561464     0.029876            0            0        7.469 
Loop time of 9.53674e-07 on 1 procs for 0 steps with 500 atoms

Pair  time (%) = 0 (0)
Neigh time (%) = 0 (0)
Comm  time (%) = 0 (0)
Outpt time (%) = 0 (0)
Other time (%) = 9.53674e-07 (100)

Nlocal:    500 ave 500 max 500 min
Histogram: 1 0 0 0 0 0 0 0 0 0
Nghost:    2174 ave 2174 max 2174 min
Histogram: 1 0 0 0 0 0 0 0 0 0
Neighs:    22908 ave 22908 max 22908 min
Histogram: 1 0 0 0 0 0 0 0 0 0

Total # of neighbors = 22908
Ave neighs/atom = 45.816
Neighbor list builds = 0
Dangerous builds = 0
WARNING: Resetting reneighboring criteria during minimization (min.cpp:166)
Memory usage per processor = 2.43658 Mbytes
mystep PotEng Xy Xz Yz Lx 
           8   -7.6561464     0.029876            0            0        7.469 
           8   -7.6561589     0.029876            0            0        7.469 
Loop time of 0.149997 on 1 procs for 18 steps with 500 atoms

Minimization stats:
  Stopping criterion = energy tolerance
  Energy initial, next-to-last, final = 
        -7.65614640075      -7.6561588222     -7.65615889607
  Force two-norm initial, final = 1.40445 0.161136
  Force max component initial, final = 0.143805 0.0384652
  Final line search alpha, max atom move = 0.00113419 4.36268e-05
  Iterations, force evaluations = 18 172

Pair  time (%) = 0.143354 (95.571)
Neigh time (%) = 0 (0)
Comm  time (%) = 0.00428724 (2.85822)
Outpt time (%) = 0 (0)
Other time (%) = 0.00235605 (1.57073)

Nlocal:    500 ave 500 max 500 min
Histogram: 1 0 0 0 0 0 0 0 0 0
Nghost:    2174 ave 2174 max 2174 min
Histogram: 1 0 0 0 0 0 0 0 0 0
Neighs:    22908 ave 22908 max 22908 min
Histogram: 1 0 0 0 0 0 0 0 0 0

Total # of neighbors = 22908
Ave neighs/atom = 45.816
Neighbor list builds = 0
Dangerous builds = 0
WARNING: No fixes defined, atoms won't move (verlet.cpp:52)
Memory usage per processor = 1.7156 Mbytes
mystep PotEng Xy Xz Yz Lx 
           8   -7.6561589     0.029876            0            0        7.469 
Loop time of 0 on 1 procs for 0 steps with 500 atoms

Pair  time (%) = 0 (0)
Neigh time (%) = 0 (0)
Comm  time (%) = 0 (0)
Outpt time (%) = 0 (0)
Other time (%) = 0 (0)

Nlocal:    500 ave 500 max 500 min
Histogram: 1 0 0 0 0 0 0 0 0 0
Nghost:    2174 ave 2174 max 2174 min
Histogram: 1 0 0 0 0 0 0 0 0 0
Neighs:    22907 ave 22907 max 22907 min
Histogram: 1 0 0 0 0 0 0 0 0 0

Total # of neighbors = 22907
Ave neighs/atom = 45.814
Neighbor list builds = 0
Dangerous builds = 0
Memory usage per processor = 1.7156 Mbytes
mystep PotEng Xy Xz Yz Lx 
           9   -7.6561589     0.029876            0            0        7.469 
           9   -7.6561589     0.037345            0            0        7.469 
Loop time of 0.000883102 on 1 procs for 1 steps with 500 atoms

Pair  time (%) = 0.000832081 (94.2225)
Neigh time (%) = 0 (0)
Comm  time (%) = 2.5034e-05 (2.83477)
Outpt time (%) = 1.00136e-05 (1.13391)
Other time (%) = 1.5974e-05 (1.80886)

Nlocal:    500 ave 500 max 500 min
Histogram: 1 0 0 0 0 0 0 0 0 0
Nghost:    2174 ave 2174 max 2174 min
Histogram: 1 0 0 0 0 0 0 0 0 0
Neighs:    22907 ave 22907 max 22907 min
Histogram: 1 0 0 0 0 0 0 0 0 0

Total # of neighbors = 22907
Ave neighs/atom = 45.814
Neighbor list builds = 0
Dangerous builds = 0
WARNING: No fixes defined, atoms won't move (verlet.cpp:52)
Memory usage per processor = 1.7156 Mbytes
mystep PotEng Xy Xz Yz Lx 
           9   -7.6561269     0.037345            0            0        7.469 
Loop time of 1.19209e-06 on 1 procs for 0 steps with 500 atoms

Pair  time (%) = 0 (0)
Neigh time (%) = 0 (0)
Comm  time (%) = 0 (0)
Outpt time (%) = 0 (0)
Other time (%) = 1.19209e-06 (100)

Nlocal:    500 ave 500 max 500 min
Histogram: 1 0 0 0 0 0 0 0 0 0
Nghost:    2174 ave 2174 max 2174 min
Histogram: 1 0 0 0 0 0 0 0 0 0
Neighs:    22903 ave 22903 max 22903 min
Histogram: 1 0 0 0 0 0 0 0 0 0

Total # of neighbors = 22903
Ave neighs/atom = 45.806
Neighbor list builds = 0
Dangerous builds = 0
WARNING: Resetting reneighboring criteria during minimization (min.cpp:166)
Memory usage per processor = 2.43658 Mbytes
mystep PotEng Xy Xz Yz Lx 
          10   -7.6561269     0.037345            0            0        7.469 
          10   -7.6561436     0.037345            0            0        7.469 
Loop time of 0.189901 on 1 procs for 23 steps with 500 atoms

Minimization stats:
  Stopping criterion = energy tolerance
  Energy initial, next-to-last, final = 
        -7.65612694501     -7.65614351747     -7.65614357269
  Force two-norm initial, final = 1.43165 0.112553
  Force max component initial, final = 0.153059 0.0190559
  Final line search alpha, max atom move = 0.00195312 3.72186e-05
  Iterations, force evaluations = 23 218

Pair  time (%) = 0.181494 (95.5729)
Neigh time (%) = 0 (0)
Comm  time (%) = 0.00542235 (2.85536)
Outpt time (%) = 0 (0)
Other time (%) = 0.00298476 (1.57175)

Nlocal:    500 ave 500 max 500 min
Histogram: 1 0 0 0 0 0 0 0 0 0
Nghost:    2174 ave 2174 max 2174 min
Histogram: 1 0 0 0 0 0 0 0 0 0
Neighs:    22903 ave 22903 max 22903 min
Histogram: 1 0 0 0 0 0 0 0 0 0

Total # of neighbors = 22903
Ave neighs/atom = 45.806
Neighbor list builds = 0
Dangerous builds = 0
WARNING: No fixes defined, atoms won't move (verlet.cpp:52)
Memory usage per processor = 1.7156 Mbytes
mystep PotEng Xy Xz Yz Lx 
          10   -7.6561436     0.037345            0            0        7.469 
Loop time of 9.53674e-07 on 1 procs for 0 steps with 500 atoms

Pair  time (%) = 0 (0)
Neigh time (%) = 0 (0)
Comm  time (%) = 0 (0)
Outpt time (%) = 0 (0)
Other time (%) = 9.53674e-07 (100)

Nlocal:    500 ave 500 max 500 min
Histogram: 1 0 0 0 0 0 0 0 0 0
Nghost:    2174 ave 2174 max 2174 min
Histogram: 1 0 0 0 0 0 0 0 0 0
Neighs:    22911 ave 22911 max 22911 min
Histogram: 1 0 0 0 0 0 0 0 0 0

Total # of neighbors = 22911
Ave neighs/atom = 45.822
Neighbor list builds = 0
Dangerous builds = 0
Memory usage per processor = 1.7156 Mbytes
mystep PotEng Xy Xz Yz Lx 
          11   -7.6561436     0.037345            0            0        7.469 
          11   -7.6561436     0.044814            0            0        7.469 
Loop time of 0.000879049 on 1 procs for 1 steps with 500 atoms

Pair  time (%) = 0.000828028 (94.1958)
Neigh time (%) = 0 (0)
Comm  time (%) = 2.59876e-05 (2.95633)
Outpt time (%) = 9.05991e-06 (1.03065)
Other time (%) = 1.5974e-05 (1.8172)

Nlocal:    500 ave 500 max 500 min
Histogram: 1 0 0 0 0 0 0 0 0 0
Nghost:    2174 ave 2174 max 2174 min
Histogram: 1 0 0 0 0 0 0 0 0 0
Neighs:    22911 ave 22911 max 22911 min
Histogram: 1 0 0 0 0 0 0 0 0 0

Total # of neighbors = 22911
Ave neighs/atom = 45.822
Neighbor list builds = 0
Dangerous builds = 0
WARNING: No fixes defined, atoms won't move (verlet.cpp:52)
Memory usage per processor = 1.7156 Mbytes
mystep PotEng Xy Xz Yz Lx 
          11   -7.6561024     0.044814            0            0        7.469 
Loop time of 0 on 1 procs for 0 steps with 500 atoms

Pair  time (%) = 0 (0)
Neigh time (%) = 0 (0)
Comm  time (%) = 0 (0)
Outpt time (%) = 0 (0)
Other time (%) = 0 (0)

Nlocal:    500 ave 500 max 500 min
Histogram: 1 0 0 0 0 0 0 0 0 0
Nghost:    2174 ave 2174 max 2174 min
Histogram: 1 0 0 0 0 0 0 0 0 0
Neighs:    22910 ave 22910 max 22910 min
Histogram: 1 0 0 0 0 0 0 0 0 0

Total # of neighbors = 22910
Ave neighs/atom = 45.82
Neighbor list builds = 0
Dangerous builds = 0
WARNING: Resetting reneighboring criteria during minimization (min.cpp:166)
Memory usage per processor = 2.43658 Mbytes
mystep PotEng Xy Xz Yz Lx 
          12   -7.6561024     0.044814            0            0        7.469 
          12   -7.6561202     0.044814            0            0        7.469 
Loop time of 0.300172 on 1 procs for 36 steps with 500 atoms

Minimization stats:
  Stopping criterion = energy tolerance
  Energy initial, next-to-last, final = 
        -7.65610236632     -7.65612017622     -7.65612024603
  Force two-norm initial, final = 1.41624 0.250638
  Force max component initial, final = 0.139135 0.100551
  Final line search alpha, max atom move = 0.00390625 0.000392779
  Iterations, force evaluations = 36 345

Pair  time (%) = 0.286865 (95.5669)
Neigh time (%) = 0 (0)
Comm  time (%) = 0.00857782 (2.85764)
Outpt time (%) = 0 (0)
Other time (%) = 0.00472903 (1.57544)

Nlocal:    500 ave 500 max 500 min
Histogram: 1 0 0 0 0 0 0 0 0 0
Nghost:    2174 ave 2174 max 2174 min
Histogram: 1 0 0 0 0 0 0 0 0 0
Neighs:    22910 ave 22910 max 22910 min
Histogram: 1 0 0 0 0 0 0 0 0 0

Total # of neighbors = 22910
Ave neighs/atom = 45.82
Neighbor list builds = 0
Dangerous builds = 0
WARNING: No fixes defined, atoms won't move (verlet.cpp:52)
Memory usage per processor = 1.7156 Mbytes
mystep PotEng Xy Xz Yz Lx 
          12   -7.6561202     0.044814            0            0        7.469 
Loop time of 1.19209e-06 on 1 procs for 0 steps with 500 atoms

Pair  time (%) = 0 (0)
Neigh time (%) = 0 (0)
Comm  time (%) = 0 (0)
Outpt time (%) = 0 (0)
Other time (%) = 1.19209e-06 (100)

Nlocal:    500 ave 500 max 500 min
Histogram: 1 0 0 0 0 0 0 0 0 0
Nghost:    2174 ave 2174 max 2174 min
Histogram: 1 0 0 0 0 0 0 0 0 0
Neighs:    22909 ave 22909 max 22909 min
Histogram: 1 0 0 0 0 0 0 0 0 0

Total # of neighbors = 22909
Ave neighs/atom = 45.818
Neighbor list builds = 0
Dangerous builds = 0
Memory usage per processor = 1.7156 Mbytes
mystep PotEng Xy Xz Yz Lx 
          13   -7.6561202     0.044814            0            0        7.469 
          13   -7.6561202     0.052283            0            0        7.469 
Loop time of 0.000893116 on 1 procs for 1 steps with 500 atoms

Pair  time (%) = 0.000844002 (94.5008)
Neigh time (%) = 0 (0)
Comm  time (%) = 2.5034e-05 (2.80299)
Outpt time (%) = 1.12057e-05 (1.25467)
Other time (%) = 1.28746e-05 (1.44154)

Nlocal:    500 ave 500 max 500 min
Histogram: 1 0 0 0 0 0 0 0 0 0
Nghost:    2174 ave 2174 max 2174 min
Histogram: 1 0 0 0 0 0 0 0 0 0
Neighs:    22909 ave 22909 max 22909 min
Histogram: 1 0 0 0 0 0 0 0 0 0

Total # of neighbors = 22909
Ave neighs/atom = 45.818
Neighbor list builds = 0
Dangerous builds = 0
WARNING: No fixes defined, atoms won't move (verlet.cpp:52)
Memory usage per processor = 1.7156 Mbytes
mystep PotEng Xy Xz Yz Lx 
          13   -7.6560698     0.052283            0            0        7.469 
Loop time of 0 on 1 procs for 0 steps with 500 atoms

Pair  time (%) = 0 (0)
Neigh time (%) = 0 (0)
Comm  time (%) = 0 (0)
Outpt time (%) = 0 (0)
Other time (%) = 0 (0)

Nlocal:    500 ave 500 max 500 min
Histogram: 1 0 0 0 0 0 0 0 0 0
Nghost:    2174 ave 2174 max 2174 min
Histogram: 1 0 0 0 0 0 0 0 0 0
Neighs:    22911 ave 22911 max 22911 min
Histogram: 1 0 0 0 0 0 0 0 0 0

Total # of neighbors = 22911
Ave neighs/atom = 45.822
Neighbor list builds = 0
Dangerous builds = 0
WARNING: Resetting reneighboring criteria during minimization (min.cpp:166)
Memory usage per processor = 2.43658 Mbytes
mystep PotEng Xy Xz Yz Lx 
          14   -7.6560698     0.052283            0            0        7.469 
          14    -7.656088     0.052283            0            0        7.469 
Loop time of 0.189952 on 1 procs for 23 steps with 500 atoms

Minimization stats:
  Stopping criterion = energy tolerance
  Energy initial, next-to-last, final = 
        -7.65606982238     -7.65608790343     -7.65608797706
  Force two-norm initial, final = 1.41946 0.165776
  Force max component initial, final = 0.147645 0.0405856
  Final line search alpha, max atom move = 0.00195312 7.92687e-05
  Iterations, force evaluations = 23 218

Pair  time (%) = 0.18153 (95.5663)
Neigh time (%) = 0 (0)
Comm  time (%) = 0.00541329 (2.84982)
Outpt time (%) = 0 (0)
Other time (%) = 0.0030086 (1.58387)

Nlocal:    500 ave 500 max 500 min
Histogram: 1 0 0 0 0 0 0 0 0 0
Nghost:    2174 ave 2174 max 2174 min
Histogram: 1 0 0 0 0 0 0 0 0 0
Neighs:    22911 ave 22911 max 22911 min
Histogram: 1 0 0 0 0 0 0 0 0 0

Total # of neighbors = 22911
Ave neighs/atom = 45.822
Neighbor list builds = 0
Dangerous builds = 0
WARNING: No fixes defined, atoms won't move (verlet.cpp:52)
Memory usage per processor = 1.7156 Mbytes
mystep PotEng Xy Xz Yz Lx 
          14    -7.656088     0.052283            0            0        7.469 
Loop time of 9.53674e-07 on 1 procs for 0 steps with 500 atoms

Pair  time (%) = 0 (0)
Neigh time (%) = 0 (0)
Comm  time (%) = 0 (0)
Outpt time (%) = 0 (0)
Other time (%) = 9.53674e-07 (100)

Nlocal:    500 ave 500 max 500 min
Histogram: 1 0 0 0 0 0 0 0 0 0
Nghost:    2174 ave 2174 max 2174 min
Histogram: 1 0 0 0 0 0 0 0 0 0
Neighs:    22914 ave 22914 max 22914 min
Histogram: 1 0 0 0 0 0 0 0 0 0

Total # of neighbors = 22914
Ave neighs/atom = 45.828
Neighbor list builds = 0
Dangerous builds = 0
Memory usage per processor = 1.7156 Mbytes
mystep PotEng Xy Xz Yz Lx 
          15    -7.656088     0.052283            0            0        7.469 
          15    -7.656088     0.059752            0            0        7.469 
Loop time of 0.000874996 on 1 procs for 1 steps with 500 atoms

Pair  time (%) = 0.000828028 (94.6322)
Neigh time (%) = 0 (0)
Comm  time (%) = 2.6226e-05 (2.99728)
Outpt time (%) = 8.82149e-06 (1.00817)
Other time (%) = 1.19209e-05 (1.3624)

Nlocal:    500 ave 500 max 500 min
Histogram: 1 0 0 0 0 0 0 0 0 0
Nghost:    2174 ave 2174 max 2174 min
Histogram: 1 0 0 0 0 0 0 0 0 0
Neighs:    22914 ave 22914 max 22914 min
Histogram: 1 0 0 0 0 0 0 0 0 0

Total # of neighbors = 22914
Ave neighs/atom = 45.828
Neighbor list builds = 0
Dangerous builds = 0
WARNING: No fixes defined, atoms won't move (verlet.cpp:52)
Memory usage per processor = 1.7156 Mbytes
mystep PotEng Xy Xz Yz Lx 
          15   -7.6560301     0.059752            0            0        7.469 
Loop time of 0 on 1 procs for 0 steps with 500 atoms

Pair  time (%) = 0 (0)
Neigh time (%) = 0 (0)
Comm  time (%) = 0 (0)
Outpt time (%) = 0 (0)
Other time (%) = 0 (0)

Nlocal:    500 ave 500 max 500 min
Histogram: 1 0 0 0 0 0 0 0 0 0
Nghost:    2174 ave 2174 max 2174 min
Histogram: 1 0 0 0 0 0 0 0 0 0
Neighs:    22923 ave 22923 max 22923 min
Histogram: 1 0 0 0 0 0 0 0 0 0

Total # of neighbors = 22923
Ave neighs/atom = 45.846
Neighbor list builds = 0
Dangerous builds = 0
WARNING: Resetting reneighboring criteria during minimization (min.cpp:166)
Memory usage per processor = 2.43658 Mbytes
mystep PotEng Xy Xz Yz Lx 
          16   -7.6560301     0.059752            0            0        7.469 
          16   -7.6560687     0.059752            0            0        7.469 
Loop time of 0.566789 on 1 procs for 70 steps with 500 atoms

Minimization stats:
  Stopping criterion = energy tolerance
  Energy initial, next-to-last, final = 
        -7.65603008627     -7.65606863691     -7.65606870693
  Force two-norm initial, final = 1.4385 0.171782
  Force max component initial, final = 0.148371 0.0516317
  Final line search alpha, max atom move = 0.00195312 0.000100843
  Iterations, force evaluations = 70 643

Pair  time (%) = 0.534458 (94.2958)
Neigh time (%) = 0.00699806 (1.23469)
Comm  time (%) = 0.0164471 (2.9018)
Outpt time (%) = 0 (0)
Other time (%) = 0.00888586 (1.56775)

Nlocal:    500 ave 500 max 500 min
Histogram: 1 0 0 0 0 0 0 0 0 0
Nghost:    2178 ave 2178 max 2178 min
Histogram: 1 0 0 0 0 0 0 0 0 0
Neighs:    22920 ave 22920 max 22920 min
Histogram: 1 0 0 0 0 0 0 0 0 0

Total # of neighbors = 22920
Ave neighs/atom = 45.84
Neighbor list builds = 4
Dangerous builds = 0
WARNING: No fixes defined, atoms won't move (verlet.cpp:52)
Memory usage per processor = 1.7156 Mbytes
mystep PotEng Xy Xz Yz Lx 
          16   -7.6560687     0.059752            0            0        7.469 
Loop time of 9.53674e-07 on 1 procs for 0 steps with 500 atoms

Pair  time (%) = 0 (0)
Neigh time (%) = 0 (0)
Comm  time (%) = 0 (0)
Outpt time (%) = 0 (0)
Other time (%) = 9.53674e-07 (100)

Nlocal:    500 ave 500 max 500 min
Histogram: 1 0 0 0 0 0 0 0 0 0
Nghost:    2178 ave 2178 max 2178 min
Histogram: 1 0 0 0 0 0 0 0 0 0
Neighs:    22910 ave 22910 max 22910 min
Histogram: 1 0 0 0 0 0 0 0 0 0

Total # of neighbors = 22910
Ave neighs/atom = 45.82
Neighbor list builds = 0
Dangerous builds = 0
Memory usage per processor = 1.7156 Mbytes
mystep PotEng Xy Xz Yz Lx 
          17   -7.6560687     0.059752            0            0        7.469 
          17   -7.6560687     0.067221            0            0        7.469 
Loop time of 0.000874996 on 1 procs for 1 steps with 500 atoms

Pair  time (%) = 0.000828028 (94.6322)
Neigh time (%) = 0 (0)
Comm  time (%) = 2.47955e-05 (2.83379)
Outpt time (%) = 9.05991e-06 (1.03542)
Other time (%) = 1.3113e-05 (1.49864)

Nlocal:    500 ave 500 max 500 min
Histogram: 1 0 0 0 0 0 0 0 0 0
Nghost:    2178 ave 2178 max 2178 min
Histogram: 1 0 0 0 0 0 0 0 0 0
Neighs:    22910 ave 22910 max 22910 min
Histogram: 1 0 0 0 0 0 0 0 0 0

Total # of neighbors = 22910
Ave neighs/atom = 45.82
Neighbor list builds = 0
Dangerous builds = 0
WARNING: No fixes defined, atoms won't move (verlet.cpp:52)
Memory usage per processor = 1.7156 Mbytes
mystep PotEng Xy Xz Yz Lx 
          17   -7.6560157     0.067221            0            0        7.469 
Loop time of 0 on 1 procs for 0 steps with 500 atoms

Pair  time (%) = 0 (0)
Neigh time (%) = 0 (0)
Comm  time (%) = 0 (0)
Outpt time (%) = 0 (0)
Other time (%) = 0 (0)

Nlocal:    500 ave 500 max 500 min
Histogram: 1 0 0 0 0 0 0 0 0 0
Nghost:    2178 ave 2178 max 2178 min
Histogram: 1 0 0 0 0 0 0 0 0 0
Neighs:    22918 ave 22918 max 22918 min
Histogram: 1 0 0 0 0 0 0 0 0 0

Total # of neighbors = 22918
Ave neighs/atom = 45.836
Neighbor list builds = 0
Dangerous builds = 0
WARNING: Resetting reneighboring criteria during minimization (min.cpp:166)
Memory usage per processor = 2.43658 Mbytes
mystep PotEng Xy Xz Yz Lx 
          18   -7.6560157     0.067221            0            0        7.469 
          18   -7.6562096     0.067221            0            0        7.469 
Loop time of 0.708851 on 1 procs for 97 steps with 500 atoms

Minimization stats:
  Stopping criterion = energy tolerance
  Energy initial, next-to-last, final = 
        -7.65601565843     -7.65620955649     -7.65620963094
  Force two-norm initial, final = 1.42166 0.130096
  Force max component initial, final = 0.171483 0.0303203
  Final line search alpha, max atom move = 0.00195312 5.92194e-05
  Iterations, force evaluations = 97 813

Pair  time (%) = 0.675237 (95.258)
Neigh time (%) = 0.00174904 (0.246743)
Comm  time (%) = 0.020463 (2.88678)
Outpt time (%) = 0 (0)
Other time (%) = 0.0114017 (1.60847)

Nlocal:    500 ave 500 max 500 min
Histogram: 1 0 0 0 0 0 0 0 0 0
Nghost:    2184 ave 2184 max 2184 min
Histogram: 1 0 0 0 0 0 0 0 0 0
Neighs:    22891 ave 22891 max 22891 min
Histogram: 1 0 0 0 0 0 0 0 0 0

Total # of neighbors = 22891
Ave neighs/atom = 45.782
Neighbor list builds = 1
Dangerous builds = 0
WARNING: No fixes defined, atoms won't move (verlet.cpp:52)
Memory usage per processor = 1.7156 Mbytes
mystep PotEng Xy Xz Yz Lx 
          18   -7.6562096     0.067221            0            0        7.469 
Loop time of 0 on 1 procs for 0 steps with 500 atoms

Pair  time (%) = 0 (0)
Neigh time (%) = 0 (0)
Comm  time (%) = 0 (0)
Outpt time (%) = 0 (0)
Other time (%) = 0 (0)

Nlocal:    500 ave 500 max 500 min
Histogram: 1 0 0 0 0 0 0 0 0 0
Nghost:    2180 ave 2180 max 2180 min
Histogram: 1 0 0 0 0 0 0 0 0 0
Neighs:    22896 ave 22896 max 22896 min
Histogram: 1 0 0 0 0 0 0 0 0 0

Total # of neighbors = 22896
Ave neighs/atom = 45.792
Neighbor list builds = 0
Dangerous builds = 0
Memory usage per processor = 1.7156 Mbytes
mystep PotEng Xy Xz Yz Lx 
          19   -7.6562096     0.067221            0            0        7.469 
          19   -7.6562096      0.07469            0            0        7.469 
Loop time of 0.000876904 on 1 procs for 1 steps with 500 atoms

Pair  time (%) = 0.000830173 (94.671)
Neigh time (%) = 0 (0)
Comm  time (%) = 2.47955e-05 (2.82762)
Outpt time (%) = 8.10623e-06 (0.924415)
Other time (%) = 1.38283e-05 (1.57694)

Nlocal:    500 ave 500 max 500 min
Histogram: 1 0 0 0 0 0 0 0 0 0
Nghost:    2180 ave 2180 max 2180 min
Histogram: 1 0 0 0 0 0 0 0 0 0
Neighs:    22896 ave 22896 max 22896 min
Histogram: 1 0 0 0 0 0 0 0 0 0

Total # of neighbors = 22896
Ave neighs/atom = 45.792
Neighbor list builds = 0
Dangerous builds = 0
WARNING: No fixes defined, atoms won't move (verlet.cpp:52)
Memory usage per processor = 1.7156 Mbytes
mystep PotEng Xy Xz Yz Lx 
          19   -7.6562119      0.07469            0            0        7.469 
Loop time of 0 on 1 procs for 0 steps with 500 atoms

Pair  time (%) = 0 (0)
Neigh time (%) = 0 (0)
Comm  time (%) = 0 (0)
Outpt time (%) = 0 (0)
Other time (%) = 0 (0)

Nlocal:    500 ave 500 max 500 min
Histogram: 1 0 0 0 0 0 0 0 0 0
Nghost:    2180 ave 2180 max 2180 min
Histogram: 1 0 0 0 0 0 0 0 0 0
Neighs:    22893 ave 22893 max 22893 min
Histogram: 1 0 0 0 0 0 0 0 0 0

Total # of neighbors = 22893
Ave neighs/atom = 45.786
Neighbor list builds = 0
Dangerous builds = 0
WARNING: Resetting reneighboring criteria during minimization (min.cpp:166)
Memory usage per processor = 2.43658 Mbytes
mystep PotEng Xy Xz Yz Lx 
          20   -7.6562119      0.07469            0            0        7.469 
          20   -7.6562326      0.07469            0            0        7.469 
Loop time of 0.354589 on 1 procs for 43 steps with 500 atoms

Minimization stats:
  Stopping criterion = energy tolerance
  Energy initial, next-to-last, final = 
        -7.65621190173     -7.65623256453     -7.65623262213
  Force two-norm initial, final = 1.42646 0.230442
  Force max component initial, final = 0.161793 0.0508613
  Final line search alpha, max atom move = 0.000909765 4.62718e-05
  Iterations, force evaluations = 43 405

Pair  time (%) = 0.337 (95.0397)
Neigh time (%) = 0.00173998 (0.490703)
Comm  time (%) = 0.0102804 (2.89924)
Outpt time (%) = 0 (0)
Other time (%) = 0.0055685 (1.57041)

Nlocal:    500 ave 500 max 500 min
Histogram: 1 0 0 0 0 0 0 0 0 0
Nghost:    2172 ave 2172 max 2172 min
Histogram: 1 0 0 0 0 0 0 0 0 0
Neighs:    22901 ave 22901 max 22901 min
Histogram: 1 0 0 0 0 0 0 0 0 0

Total # of neighbors = 22901
Ave neighs/atom = 45.802
Neighbor list builds = 1
Dangerous builds = 0
WARNING: No fixes defined, atoms won't move (verlet.cpp:52)
Memory usage per processor = 1.7156 Mbytes
mystep PotEng Xy Xz Yz Lx 
          20   -7.6562326      0.07469            0            0        7.469 
Loop time of 0 on 1 procs for 0 steps with 500 atoms

Pair  time (%) = 0 (0)
Neigh time (%) = 0 (0)
Comm  time (%) = 0 (0)
Outpt time (%) = 0 (0)
Other time (%) = 0 (0)

Nlocal:    500 ave 500 max 500 min
Histogram: 1 0 0 0 0 0 0 0 0 0
Nghost:    2180 ave 2180 max 2180 min
Histogram: 1 0 0 0 0 0 0 0 0 0
Neighs:    22902 ave 22902 max 22902 min
Histogram: 1 0 0 0 0 0 0 0 0 0

Total # of neighbors = 22902
Ave neighs/atom = 45.804
Neighbor list builds = 0
Dangerous builds = 0
Memory usage per processor = 1.7156 Mbytes
mystep PotEng Xy Xz Yz Lx 
          21   -7.6562326      0.07469            0            0        7.469 
          21   -7.6562326     0.082159            0            0        7.469 
Loop time of 0.000879049 on 1 procs for 1 steps with 500 atoms

Pair  time (%) = 0.000829935 (94.4128)
Neigh time (%) = 0 (0)
Comm  time (%) = 2.5034e-05 (2.84784)
Outpt time (%) = 1.00136e-05 (1.13914)
Other time (%) = 1.40667e-05 (1.60022)

Nlocal:    500 ave 500 max 500 min
Histogram: 1 0 0 0 0 0 0 0 0 0
Nghost:    2180 ave 2180 max 2180 min
Histogram: 1 0 0 0 0 0 0 0 0 0
Neighs:    22902 ave 22902 max 22902 min
Histogram: 1 0 0 0 0 0 0 0 0 0

Total # of neighbors = 22902
Ave neighs/atom = 45.804
Neighbor list builds = 0
Dangerous builds = 0
WARNING: No fixes defined, atoms won't move (verlet.cpp:52)
Memory usage per processor = 1.7156 Mbytes
mystep PotEng Xy Xz Yz Lx 
          21   -7.6562291     0.082159            0            0        7.469 
Loop time of 9.53674e-07 on 1 procs for 0 steps with 500 atoms

Pair  time (%) = 0 (0)
Neigh time (%) = 0 (0)
Comm  time (%) = 0 (0)
Outpt time (%) = 0 (0)
Other time (%) = 9.53674e-07 (100)

Nlocal:    500 ave 500 max 500 min
Histogram: 1 0 0 0 0 0 0 0 0 0
Nghost:    2180 ave 2180 max 2180 min
Histogram: 1 0 0 0 0 0 0 0 0 0
Neighs:    22898 ave 22898 max 22898 min
Histogram: 1 0 0 0 0 0 0 0 0 0

Total # of neighbors = 22898
Ave neighs/atom = 45.796
Neighbor list builds = 0
Dangerous builds = 0
WARNING: Resetting reneighboring criteria during minimization (min.cpp:166)
Memory usage per processor = 2.43658 Mbytes
mystep PotEng Xy Xz Yz Lx 
          22   -7.6562291     0.082159            0            0        7.469 
          22   -7.6562466     0.082159            0            0        7.469 
Loop time of 0.222464 on 1 procs for 27 steps with 500 atoms

Minimization stats:
  Stopping criterion = energy tolerance
  Energy initial, next-to-last, final = 
        -7.65622908814     -7.65624650197     -7.65624657101
  Force two-norm initial, final = 1.40137 0.215305
  Force max component initial, final = 0.151197 0.0431717
  Final line search alpha, max atom move = 0.00184083 7.94715e-05
  Iterations, force evaluations = 27 255

Pair  time (%) = 0.212542 (95.54)
Neigh time (%) = 0 (0)
Comm  time (%) = 0.00641894 (2.88538)
Outpt time (%) = 0 (0)
Other time (%) = 0.00350285 (1.57457)

Nlocal:    500 ave 500 max 500 min
Histogram: 1 0 0 0 0 0 0 0 0 0
Nghost:    2180 ave 2180 max 2180 min
Histogram: 1 0 0 0 0 0 0 0 0 0
Neighs:    22898 ave 22898 max 22898 min
Histogram: 1 0 0 0 0 0 0 0 0 0

Total # of neighbors = 22898
Ave neighs/atom = 45.796
Neighbor list builds = 0
Dangerous builds = 0
WARNING: No fixes defined, atoms won't move (verlet.cpp:52)
Memory usage per processor = 1.7156 Mbytes
mystep PotEng Xy Xz Yz Lx 
          22   -7.6562466     0.082159            0            0        7.469 
Loop time of 0 on 1 procs for 0 steps with 500 atoms

Pair  time (%) = 0 (0)
Neigh time (%) = 0 (0)
Comm  time (%) = 0 (0)
Outpt time (%) = 0 (0)
Other time (%) = 0 (0)

Nlocal:    500 ave 500 max 500 min
Histogram: 1 0 0 0 0 0 0 0 0 0
Nghost:    2180 ave 2180 max 2180 min
Histogram: 1 0 0 0 0 0 0 0 0 0
Neighs:    22898 ave 22898 max 22898 min
Histogram: 1 0 0 0 0 0 0 0 0 0

Total # of neighbors = 22898
Ave neighs/atom = 45.796
Neighbor list builds = 0
Dangerous builds = 0
Memory usage per processor = 1.7156 Mbytes
mystep PotEng Xy Xz Yz Lx 
          23   -7.6562466     0.082159            0            0        7.469 
          23   -7.6562466     0.089628            0            0        7.469 
Loop time of 0.000877142 on 1 procs for 1 steps with 500 atoms

Pair  time (%) = 0.000829935 (94.6181)
Neigh time (%) = 0 (0)
Comm  time (%) = 2.52724e-05 (2.88122)
Outpt time (%) = 9.05991e-06 (1.03289)
Other time (%) = 1.28746e-05 (1.46779)

Nlocal:    500 ave 500 max 500 min
Histogram: 1 0 0 0 0 0 0 0 0 0
Nghost:    2180 ave 2180 max 2180 min
Histogram: 1 0 0 0 0 0 0 0 0 0
Neighs:    22898 ave 22898 max 22898 min
Histogram: 1 0 0 0 0 0 0 0 0 0

Total # of neighbors = 22898
Ave neighs/atom = 45.796
Neighbor list builds = 0
Dangerous builds = 0
WARNING: No fixes defined, atoms won't move (verlet.cpp:52)
Memory usage per processor = 1.7156 Mbytes
mystep PotEng Xy Xz Yz Lx 
          23   -7.6562331     0.089628            0            0        7.469 
Loop time of 0 on 1 procs for 0 steps with 500 atoms

Pair  time (%) = 0 (0)
Neigh time (%) = 0 (0)
Comm  time (%) = 0 (0)
Outpt time (%) = 0 (0)
Other time (%) = 0 (0)

Nlocal:    500 ave 500 max 500 min
Histogram: 1 0 0 0 0 0 0 0 0 0
Nghost:    2180 ave 2180 max 2180 min
Histogram: 1 0 0 0 0 0 0 0 0 0
Neighs:    22897 ave 22897 max 22897 min
Histogram: 1 0 0 0 0 0 0 0 0 0

Total # of neighbors = 22897
Ave neighs/atom = 45.794
Neighbor list builds = 0
Dangerous builds = 0
WARNING: Resetting reneighboring criteria during minimization (min.cpp:166)
Memory usage per processor = 2.43658 Mbytes
mystep PotEng Xy Xz Yz Lx 
          24   -7.6562331     0.089628            0            0        7.469 
          24     -7.65625     0.089628            0            0        7.469 
Loop time of 0.234438 on 1 procs for 28 steps with 500 atoms

Minimization stats:
  Stopping criterion = energy tolerance
  Energy initial, next-to-last, final = 
        -7.65623311176     -7.65624994806     -7.65625000521
  Force two-norm initial, final = 1.45163 0.147688
  Force max component initial, final = 0.147704 0.0376098
  Final line search alpha, max atom move = 0.00195312 7.34566e-05
  Iterations, force evaluations = 28 269

Pair  time (%) = 0.224011 (95.5523)
Neigh time (%) = 0 (0)
Comm  time (%) = 0.00676274 (2.88466)
Outpt time (%) = 0 (0)
Other time (%) = 0.00366426 (1.56299)

Nlocal:    500 ave 500 max 500 min
Histogram: 1 0 0 0 0 0 0 0 0 0
Nghost:    2180 ave 2180 max 2180 min
Histogram: 1 0 0 0 0 0 0 0 0 0
Neighs:    22897 ave 22897 max 22897 min
Histogram: 1 0 0 0 0 0 0 0 0 0

Total # of neighbors = 22897
Ave neighs/atom = 45.794
Neighbor list builds = 0
Dangerous builds = 0
WARNING: No fixes defined, atoms won't move (verlet.cpp:52)
Memory usage per processor = 1.7156 Mbytes
mystep PotEng Xy Xz Yz Lx 
          24     -7.65625     0.089628            0            0        7.469 
Loop time of 0 on 1 procs for 0 steps with 500 atoms

Pair  time (%) = 0 (0)
Neigh time (%) = 0 (0)
Comm  time (%) = 0 (0)
Outpt time (%) = 0 (0)
Other time (%) = 0 (0)

Nlocal:    500 ave 500 max 500 min
Histogram: 1 0 0 0 0 0 0 0 0 0
Nghost:    2180 ave 2180 max 2180 min
Histogram: 1 0 0 0 0 0 0 0 0 0
Neighs:    22896 ave 22896 max 22896 min
Histogram: 1 0 0 0 0 0 0 0 0 0

Total # of neighbors = 22896
Ave neighs/atom = 45.792
Neighbor list builds = 0
Dangerous builds = 0
Memory usage per processor = 1.7156 Mbytes
mystep PotEng Xy Xz Yz Lx 
          25     -7.65625     0.089628            0            0        7.469 
          25     -7.65625     0.097097            0            0        7.469 
Loop time of 0.000877857 on 1 procs for 1 steps with 500 atoms

Pair  time (%) = 0.000830173 (94.5682)
Neigh time (%) = 0 (0)
Comm  time (%) = 2.59876e-05 (2.96035)
Outpt time (%) = 9.05991e-06 (1.03205)
Other time (%) = 1.26362e-05 (1.43944)

Nlocal:    500 ave 500 max 500 min
Histogram: 1 0 0 0 0 0 0 0 0 0
Nghost:    2180 ave 2180 max 2180 min
Histogram: 1 0 0 0 0 0 0 0 0 0
Neighs:    22896 ave 22896 max 22896 min
Histogram: 1 0 0 0 0 0 0 0 0 0

Total # of neighbors = 22896
Ave neighs/atom = 45.792
Neighbor list builds = 0
Dangerous builds = 0
WARNING: No fixes defined, atoms won't move (verlet.cpp:52)
Memory usage per processor = 1.7156 Mbytes
mystep PotEng Xy Xz Yz Lx 
          25   -7.6562265     0.097097            0            0        7.469 
Loop time of 0 on 1 procs for 0 steps with 500 atoms

Pair  time (%) = 0 (0)
Neigh time (%) = 0 (0)
Comm  time (%) = 0 (0)
Outpt time (%) = 0 (0)
Other time (%) = 0 (0)

Nlocal:    500 ave 500 max 500 min
Histogram: 1 0 0 0 0 0 0 0 0 0
Nghost:    2180 ave 2180 max 2180 min
Histogram: 1 0 0 0 0 0 0 0 0 0
Neighs:    22890 ave 22890 max 22890 min
Histogram: 1 0 0 0 0 0 0 0 0 0

Total # of neighbors = 22890
Ave neighs/atom = 45.78
Neighbor list builds = 0
Dangerous builds = 0
WARNING: Resetting reneighboring criteria during minimization (min.cpp:166)
Memory usage per processor = 2.43658 Mbytes
mystep PotEng Xy Xz Yz Lx 
          26   -7.6562265     0.097097            0            0        7.469 
          26   -7.6562446     0.097097            0            0        7.469 
Loop time of 0.250229 on 1 procs for 30 steps with 500 atoms

Minimization stats:
  Stopping criterion = energy tolerance
  Energy initial, next-to-last, final = 
        -7.65622651745     -7.65624458234     -7.65624463611
  Force two-norm initial, final = 1.45995 0.145525
  Force max component initial, final = 0.148379 0.051755
  Final line search alpha, max atom move = 0.00195312 0.000101084
  Iterations, force evaluations = 30 287

Pair  time (%) = 0.239138 (95.5679)
Neigh time (%) = 0 (0)
Comm  time (%) = 0.00715446 (2.85917)
Outpt time (%) = 0 (0)
Other time (%) = 0.00393605 (1.57298)

Nlocal:    500 ave 500 max 500 min
Histogram: 1 0 0 0 0 0 0 0 0 0
Nghost:    2180 ave 2180 max 2180 min
Histogram: 1 0 0 0 0 0 0 0 0 0
Neighs:    22890 ave 22890 max 22890 min
Histogram: 1 0 0 0 0 0 0 0 0 0

Total # of neighbors = 22890
Ave neighs/atom = 45.78
Neighbor list builds = 0
Dangerous builds = 0
WARNING: No fixes defined, atoms won't move (verlet.cpp:52)
Memory usage per processor = 1.7156 Mbytes
mystep PotEng Xy Xz Yz Lx 
          26   -7.6562446     0.097097            0            0        7.469 
Loop time of 0 on 1 procs for 0 steps with 500 atoms

Pair  time (%) = 0 (0)
Neigh time (%) = 0 (0)
Comm  time (%) = 0 (0)
Outpt time (%) = 0 (0)
Other time (%) = 0 (0)

Nlocal:    500 ave 500 max 500 min
Histogram: 1 0 0 0 0 0 0 0 0 0
Nghost:    2180 ave 2180 max 2180 min
Histogram: 1 0 0 0 0 0 0 0 0 0
Neighs:    22886 ave 22886 max 22886 min
Histogram: 1 0 0 0 0 0 0 0 0 0

Total # of neighbors = 22886
Ave neighs/atom = 45.772
Neighbor list builds = 0
Dangerous builds = 0
Memory usage per processor = 1.7156 Mbytes
mystep PotEng Xy Xz Yz Lx 
          27   -7.6562446     0.097097            0            0        7.469 
          27   -7.6562446     0.104566            0            0        7.469 
Loop time of 0.000883102 on 1 procs for 1 steps with 500 atoms

Pair  time (%) = 0.000833988 (94.4384)
Neigh time (%) = 0 (0)
Comm  time (%) = 2.59876e-05 (2.94276)
Outpt time (%) = 1.00136e-05 (1.13391)
Other time (%) = 1.3113e-05 (1.48488)

Nlocal:    500 ave 500 max 500 min
Histogram: 1 0 0 0 0 0 0 0 0 0
Nghost:    2180 ave 2180 max 2180 min
Histogram: 1 0 0 0 0 0 0 0 0 0
Neighs:    22886 ave 22886 max 22886 min
Histogram: 1 0 0 0 0 0 0 0 0 0

Total # of neighbors = 22886
Ave neighs/atom = 45.772
Neighbor list builds = 0
Dangerous builds = 0
WARNING: No fixes defined, atoms won't move (verlet.cpp:52)
Memory usage per processor = 1.7156 Mbytes
mystep PotEng Xy Xz Yz Lx 
          27   -7.6562119     0.104566            0            0        7.469 
Loop time of 0 on 1 procs for 0 steps with 500 atoms

Pair  time (%) = 0 (0)
Neigh time (%) = 0 (0)
Comm  time (%) = 0 (0)
Outpt time (%) = 0 (0)
Other time (%) = 0 (0)

Nlocal:    500 ave 500 max 500 min
Histogram: 1 0 0 0 0 0 0 0 0 0
Nghost:    2180 ave 2180 max 2180 min
Histogram: 1 0 0 0 0 0 0 0 0 0
Neighs:    22890 ave 22890 max 22890 min
Histogram: 1 0 0 0 0 0 0 0 0 0

Total # of neighbors = 22890
Ave neighs/atom = 45.78
Neighbor list builds = 0
Dangerous builds = 0
WARNING: Resetting reneighboring criteria during minimization (min.cpp:166)
Memory usage per processor = 2.43658 Mbytes
mystep PotEng Xy Xz Yz Lx 
          28   -7.6562119     0.104566            0            0        7.469 
          28   -7.6562303     0.104566            0            0        7.469 
Loop time of 0.205155 on 1 procs for 25 steps with 500 atoms

Minimization stats:
  Stopping criterion = energy tolerance
  Energy initial, next-to-last, final = 
        -7.65621190841      -7.6562302876     -7.65623033511
  Force two-norm initial, final = 1.4191 0.135744
  Force max component initial, final = 0.157278 0.0458218
  Final line search alpha, max atom move = 0.00195312 8.94956e-05
  Iterations, force evaluations = 25 235

Pair  time (%) = 0.196069 (95.5709)
Neigh time (%) = 0 (0)
Comm  time (%) = 0.00587177 (2.86211)
Outpt time (%) = 0 (0)
Other time (%) = 0.00321484 (1.56703)

Nlocal:    500 ave 500 max 500 min
Histogram: 1 0 0 0 0 0 0 0 0 0
Nghost:    2180 ave 2180 max 2180 min
Histogram: 1 0 0 0 0 0 0 0 0 0
Neighs:    22890 ave 22890 max 22890 min
Histogram: 1 0 0 0 0 0 0 0 0 0

Total # of neighbors = 22890
Ave neighs/atom = 45.78
Neighbor list builds = 0
Dangerous builds = 0
WARNING: No fixes defined, atoms won't move (verlet.cpp:52)
Memory usage per processor = 1.7156 Mbytes
mystep PotEng Xy Xz Yz Lx 
          28   -7.6562303     0.104566            0            0        7.469 
Loop time of 0 on 1 procs for 0 steps with 500 atoms

Pair  time (%) = 0 (0)
Neigh time (%) = 0 (0)
Comm  time (%) = 0 (0)
Outpt time (%) = 0 (0)
Other time (%) = 0 (0)

Nlocal:    500 ave 500 max 500 min
Histogram: 1 0 0 0 0 0 0 0 0 0
Nghost:    2183 ave 2183 max 2183 min
Histogram: 1 0 0 0 0 0 0 0 0 0
Neighs:    22886 ave 22886 max 22886 min
Histogram: 1 0 0 0 0 0 0 0 0 0

Total # of neighbors = 22886
Ave neighs/atom = 45.772
Neighbor list builds = 0
Dangerous builds = 0
Memory usage per processor = 1.7156 Mbytes
mystep PotEng Xy Xz Yz Lx 
          29   -7.6562303     0.104566            0            0        7.469 
          29   -7.6562303     0.112035            0            0        7.469 
Loop time of 0.000879049 on 1 procs for 1 steps with 500 atoms

Pair  time (%) = 0.000830173 (94.4399)
Neigh time (%) = 0 (0)
Comm  time (%) = 2.5034e-05 (2.84784)
Outpt time (%) = 9.05991e-06 (1.03065)
Other time (%) = 1.4782e-05 (1.68158)

Nlocal:    500 ave 500 max 500 min
Histogram: 1 0 0 0 0 0 0 0 0 0
Nghost:    2183 ave 2183 max 2183 min
Histogram: 1 0 0 0 0 0 0 0 0 0
Neighs:    22886 ave 22886 max 22886 min
Histogram: 1 0 0 0 0 0 0 0 0 0

Total # of neighbors = 22886
Ave neighs/atom = 45.772
Neighbor list builds = 0
Dangerous builds = 0
WARNING: No fixes defined, atoms won't move (verlet.cpp:52)
Memory usage per processor = 1.7156 Mbytes
mystep PotEng Xy Xz Yz Lx 
          29   -7.6561882     0.112035            0            0        7.469 
Loop time of 0 on 1 procs for 0 steps with 500 atoms

Pair  time (%) = 0 (0)
Neigh time (%) = 0 (0)
Comm  time (%) = 0 (0)
Outpt time (%) = 0 (0)
Other time (%) = 0 (0)

Nlocal:    500 ave 500 max 500 min
Histogram: 1 0 0 0 0 0 0 0 0 0
Nghost:    2183 ave 2183 max 2183 min
Histogram: 1 0 0 0 0 0 0 0 0 0
Neighs:    22890 ave 22890 max 22890 min
Histogram: 1 0 0 0 0 0 0 0 0 0

Total # of neighbors = 22890
Ave neighs/atom = 45.78
Neighbor list builds = 0
Dangerous builds = 0
WARNING: Resetting reneighboring criteria during minimization (min.cpp:166)
Memory usage per processor = 2.43658 Mbytes
mystep PotEng Xy Xz Yz Lx 
          30   -7.6561882     0.112035            0            0        7.469 
          30   -7.6562055     0.112035            0            0        7.469 
Loop time of 0.274781 on 1 procs for 33 steps with 500 atoms

Minimization stats:
  Stopping criterion = energy tolerance
  Energy initial, next-to-last, final = 
         -7.6561881735     -7.65620537988     -7.65620545264
  Force two-norm initial, final = 1.41289 0.147839
  Force max component initial, final = 0.142981 0.0290804
  Final line search alpha, max atom move = 0.00390625 0.000113595
  Iterations, force evaluations = 33 315

Pair  time (%) = 0.262577 (95.5588)
Neigh time (%) = 0 (0)
Comm  time (%) = 0.00788522 (2.86964)
Outpt time (%) = 0 (0)
Other time (%) = 0.00431848 (1.57161)

Nlocal:    500 ave 500 max 500 min
Histogram: 1 0 0 0 0 0 0 0 0 0
Nghost:    2183 ave 2183 max 2183 min
Histogram: 1 0 0 0 0 0 0 0 0 0
Neighs:    22890 ave 22890 max 22890 min
Histogram: 1 0 0 0 0 0 0 0 0 0

Total # of neighbors = 22890
Ave neighs/atom = 45.78
Neighbor list builds = 0
Dangerous builds = 0
WARNING: No fixes defined, atoms won't move (verlet.cpp:52)
Memory usage per processor = 1.7156 Mbytes
mystep PotEng Xy Xz Yz Lx 
          30   -7.6562055     0.112035            0            0        7.469 
Loop time of 0 on 1 procs for 0 steps with 500 atoms

Pair  time (%) = 0 (0)
Neigh time (%) = 0 (0)
Comm  time (%) = 0 (0)
Outpt time (%) = 0 (0)
Other time (%) = 0 (0)

Nlocal:    500 ave 500 max 500 min
Histogram: 1 0 0 0 0 0 0 0 0 0
Nghost:    2183 ave 2183 max 2183 min
Histogram: 1 0 0 0 0 0 0 0 0 0
Neighs:    22891 ave 22891 max 22891 min
Histogram: 1 0 0 0 0 0 0 0 0 0

Total # of neighbors = 22891
Ave neighs/atom = 45.782
Neighbor list builds = 0
Dangerous builds = 0
Memory usage per processor = 1.7156 Mbytes
mystep PotEng Xy Xz Yz Lx 
          31   -7.6562055     0.112035            0            0        7.469 
          31   -7.6562055     0.119504            0            0        7.469 
Loop time of 0.000879049 on 1 procs for 1 steps with 500 atoms

Pair  time (%) = 0.000830173 (94.4399)
Neigh time (%) = 0 (0)
Comm  time (%) = 2.5034e-05 (2.84784)
Outpt time (%) = 1.00136e-05 (1.13914)
Other time (%) = 1.38283e-05 (1.57309)

Nlocal:    500 ave 500 max 500 min
Histogram: 1 0 0 0 0 0 0 0 0 0
Nghost:    2183 ave 2183 max 2183 min
Histogram: 1 0 0 0 0 0 0 0 0 0
Neighs:    22891 ave 22891 max 22891 min
Histogram: 1 0 0 0 0 0 0 0 0 0

Total # of neighbors = 22891
Ave neighs/atom = 45.782
Neighbor list builds = 0
Dangerous builds = 0
WARNING: No fixes defined, atoms won't move (verlet.cpp:52)
Memory usage per processor = 1.7156 Mbytes
mystep PotEng Xy Xz Yz Lx 
          31   -7.6561544     0.119504            0            0        7.469 
Loop time of 0 on 1 procs for 0 steps with 500 atoms

Pair  time (%) = 0 (0)
Neigh time (%) = 0 (0)
Comm  time (%) = 0 (0)
Outpt time (%) = 0 (0)
Other time (%) = 0 (0)

Nlocal:    500 ave 500 max 500 min
Histogram: 1 0 0 0 0 0 0 0 0 0
Nghost:    2183 ave 2183 max 2183 min
Histogram: 1 0 0 0 0 0 0 0 0 0
Neighs:    22890 ave 22890 max 22890 min
Histogram: 1 0 0 0 0 0 0 0 0 0

Total # of neighbors = 22890
Ave neighs/atom = 45.78
Neighbor list builds = 0
Dangerous builds = 0
WARNING: Resetting reneighboring criteria during minimization (min.cpp:166)
Memory usage per processor = 2.43658 Mbytes
mystep PotEng Xy Xz Yz Lx 
          32   -7.6561544     0.119504            0            0        7.469 
          32   -7.6561707     0.119504            0            0        7.469 
Loop time of 0.223236 on 1 procs for 27 steps with 500 atoms

Minimization stats:
  Stopping criterion = energy tolerance
  Energy initial, next-to-last, final = 
        -7.65615437602     -7.65617064895     -7.65617072471
  Force two-norm initial, final = 1.39434 0.264756
  Force max component initial, final = 0.140556 0.0435977
  Final line search alpha, max atom move = 0.00195312 8.51517e-05
  Iterations, force evaluations = 27 256

Pair  time (%) = 0.213297 (95.5477)
Neigh time (%) = 0 (0)
Comm  time (%) = 0.00642538 (2.87829)
Outpt time (%) = 0 (0)
Other time (%) = 0.00351381 (1.57403)

Nlocal:    500 ave 500 max 500 min
Histogram: 1 0 0 0 0 0 0 0 0 0
Nghost:    2183 ave 2183 max 2183 min
Histogram: 1 0 0 0 0 0 0 0 0 0
Neighs:    22890 ave 22890 max 22890 min
Histogram: 1 0 0 0 0 0 0 0 0 0

Total # of neighbors = 22890
Ave neighs/atom = 45.78
Neighbor list builds = 0
Dangerous builds = 0
WARNING: No fixes defined, atoms won't move (verlet.cpp:52)
Memory usage per processor = 1.7156 Mbytes
mystep PotEng Xy Xz Yz Lx 
          32   -7.6561707     0.119504            0            0        7.469 
Loop time of 0 on 1 procs for 0 steps with 500 atoms

Pair  time (%) = 0 (0)
Neigh time (%) = 0 (0)
Comm  time (%) = 0 (0)
Outpt time (%) = 0 (0)
Other time (%) = 0 (0)

Nlocal:    500 ave 500 max 500 min
Histogram: 1 0 0 0 0 0 0 0 0 0
Nghost:    2183 ave 2183 max 2183 min
Histogram: 1 0 0 0 0 0 0 0 0 0
Neighs:    22892 ave 22892 max 22892 min
Histogram: 1 0 0 0 0 0 0 0 0 0

Total # of neighbors = 22892
Ave neighs/atom = 45.784
Neighbor list builds = 0
Dangerous builds = 0
Memory usage per processor = 1.7156 Mbytes
mystep PotEng Xy Xz Yz Lx 
          33   -7.6561707     0.119504            0            0        7.469 
          33   -7.6561707     0.126973            0            0        7.469 
Loop time of 0.000878096 on 1 procs for 1 steps with 500 atoms

Pair  time (%) = 0.000829935 (94.5153)
Neigh time (%) = 0 (0)
Comm  time (%) = 2.6226e-05 (2.9867)
Outpt time (%) = 9.05991e-06 (1.03177)
Other time (%) = 1.28746e-05 (1.4662)

Nlocal:    500 ave 500 max 500 min
Histogram: 1 0 0 0 0 0 0 0 0 0
Nghost:    2183 ave 2183 max 2183 min
Histogram: 1 0 0 0 0 0 0 0 0 0
Neighs:    22892 ave 22892 max 22892 min
Histogram: 1 0 0 0 0 0 0 0 0 0

Total # of neighbors = 22892
Ave neighs/atom = 45.784
Neighbor list builds = 0
Dangerous builds = 0
WARNING: No fixes defined, atoms won't move (verlet.cpp:52)
Memory usage per processor = 1.7156 Mbytes
mystep PotEng Xy Xz Yz Lx 
          33   -7.6561102     0.126973            0            0        7.469 
Loop time of 9.53674e-07 on 1 procs for 0 steps with 500 atoms

Pair  time (%) = 0 (0)
Neigh time (%) = 0 (0)
Comm  time (%) = 0 (0)
Outpt time (%) = 0 (0)
Other time (%) = 9.53674e-07 (100)

Nlocal:    500 ave 500 max 500 min
Histogram: 1 0 0 0 0 0 0 0 0 0
Nghost:    2183 ave 2183 max 2183 min
Histogram: 1 0 0 0 0 0 0 0 0 0
Neighs:    22889 ave 22889 max 22889 min
Histogram: 1 0 0 0 0 0 0 0 0 0

Total # of neighbors = 22889
Ave neighs/atom = 45.778
Neighbor list builds = 0
Dangerous builds = 0
WARNING: Resetting reneighboring criteria during minimization (min.cpp:166)
Memory usage per processor = 2.43658 Mbytes
mystep PotEng Xy Xz Yz Lx 
          34   -7.6561102     0.126973            0            0        7.469 
          34   -7.6561267     0.126973            0            0        7.469 
Loop time of 0.229307 on 1 procs for 28 steps with 500 atoms

Minimization stats:
  Stopping criterion = energy tolerance
  Energy initial, next-to-last, final = 
        -7.65611022179      -7.6561266461     -7.65612670435
  Force two-norm initial, final = 1.39655 0.228955
  Force max component initial, final = 0.137268 0.050352
  Final line search alpha, max atom move = 0.0012501 6.2945e-05
  Iterations, force evaluations = 28 263

Pair  time (%) = 0.219116 (95.5558)
Neigh time (%) = 0 (0)
Comm  time (%) = 0.00658011 (2.86956)
Outpt time (%) = 0 (0)
Other time (%) = 0.00361085 (1.57468)

Nlocal:    500 ave 500 max 500 min
Histogram: 1 0 0 0 0 0 0 0 0 0
Nghost:    2183 ave 2183 max 2183 min
Histogram: 1 0 0 0 0 0 0 0 0 0
Neighs:    22889 ave 22889 max 22889 min
Histogram: 1 0 0 0 0 0 0 0 0 0

Total # of neighbors = 22889
Ave neighs/atom = 45.778
Neighbor list builds = 0
Dangerous builds = 0
WARNING: No fixes defined, atoms won't move (verlet.cpp:52)
Memory usage per processor = 1.7156 Mbytes
mystep PotEng Xy Xz Yz Lx 
          34   -7.6561267     0.126973            0            0        7.469 
Loop time of 0 on 1 procs for 0 steps with 500 atoms

Pair  time (%) = 0 (0)
Neigh time (%) = 0 (0)
Comm  time (%) = 0 (0)
Outpt time (%) = 0 (0)
Other time (%) = 0 (0)

Nlocal:    500 ave 500 max 500 min
Histogram: 1 0 0 0 0 0 0 0 0 0
Nghost:    2183 ave 2183 max 2183 min
Histogram: 1 0 0 0 0 0 0 0 0 0
Neighs:    22898 ave 22898 max 22898 min
Histogram: 1 0 0 0 0 0 0 0 0 0

Total # of neighbors = 22898
Ave neighs/atom = 45.796
Neighbor list builds = 0
Dangerous builds = 0
Memory usage per processor = 1.7156 Mbytes
mystep PotEng Xy Xz Yz Lx 
          35   -7.6561267     0.126973            0            0        7.469 
          35   -7.6561267     0.134442            0            0        7.469 
Loop time of 0.00089407 on 1 procs for 1 steps with 500 atoms

Pair  time (%) = 0.000843048 (94.2933)
Neigh time (%) = 0 (0)
Comm  time (%) = 2.52724e-05 (2.82667)
Outpt time (%) = 1.19209e-05 (1.33333)
Other time (%) = 1.38283e-05 (1.54667)

Nlocal:    500 ave 500 max 500 min
Histogram: 1 0 0 0 0 0 0 0 0 0
Nghost:    2183 ave 2183 max 2183 min
Histogram: 1 0 0 0 0 0 0 0 0 0
Neighs:    22898 ave 22898 max 22898 min
Histogram: 1 0 0 0 0 0 0 0 0 0

Total # of neighbors = 22898
Ave neighs/atom = 45.796
Neighbor list builds = 0
Dangerous builds = 0
WARNING: No fixes defined, atoms won't move (verlet.cpp:52)
Memory usage per processor = 1.7156 Mbytes
mystep PotEng Xy Xz Yz Lx 
          35   -7.6560553     0.134442            0            0        7.469 
Loop time of 0 on 1 procs for 0 steps with 500 atoms

Pair  time (%) = 0 (0)
Neigh time (%) = 0 (0)
Comm  time (%) = 0 (0)
Outpt time (%) = 0 (0)
Other time (%) = 0 (0)

Nlocal:    500 ave 500 max 500 min
Histogram: 1 0 0 0 0 0 0 0 0 0
Nghost:    2183 ave 2183 max 2183 min
Histogram: 1 0 0 0 0 0 0 0 0 0
Neighs:    22895 ave 22895 max 22895 min
Histogram: 1 0 0 0 0 0 0 0 0 0

Total # of neighbors = 22895
Ave neighs/atom = 45.79
Neighbor list builds = 0
Dangerous builds = 0
WARNING: Resetting reneighboring criteria during minimization (min.cpp:166)
Memory usage per processor = 2.43658 Mbytes
mystep PotEng Xy Xz Yz Lx 
          36   -7.6560553     0.134442            0            0        7.469 
          36   -7.6560723     0.134442            0            0        7.469 
Loop time of 0.216628 on 1 procs for 26 steps with 500 atoms

Minimization stats:
  Stopping criterion = energy tolerance
  Energy initial, next-to-last, final = 
        -7.65605525184     -7.65607224653     -7.65607230922
  Force two-norm initial, final = 1.43961 0.113238
  Force max component initial, final = 0.155038 0.0211235
  Final line search alpha, max atom move = 0.00195312 4.12568e-05
  Iterations, force evaluations = 26 248

Pair  time (%) = 0.206996 (95.5538)
Neigh time (%) = 0 (0)
Comm  time (%) = 0.00622559 (2.87386)
Outpt time (%) = 0 (0)
Other time (%) = 0.00340605 (1.5723)

Nlocal:    500 ave 500 max 500 min
Histogram: 1 0 0 0 0 0 0 0 0 0
Nghost:    2183 ave 2183 max 2183 min
Histogram: 1 0 0 0 0 0 0 0 0 0
Neighs:    22895 ave 22895 max 22895 min
Histogram: 1 0 0 0 0 0 0 0 0 0

Total # of neighbors = 22895
Ave neighs/atom = 45.79
Neighbor list builds = 0
Dangerous builds = 0
WARNING: No fixes defined, atoms won't move (verlet.cpp:52)
Memory usage per processor = 1.7156 Mbytes
mystep PotEng Xy Xz Yz Lx 
          36   -7.6560723     0.134442            0            0        7.469 
Loop time of 0 on 1 procs for 0 steps with 500 atoms

Pair  time (%) = 0 (0)
Neigh time (%) = 0 (0)
Comm  time (%) = 0 (0)
Outpt time (%) = 0 (0)
Other time (%) = 0 (0)

Nlocal:    500 ave 500 max 500 min
Histogram: 1 0 0 0 0 0 0 0 0 0
Nghost:    2183 ave 2183 max 2183 min
Histogram: 1 0 0 0 0 0 0 0 0 0
Neighs:    22895 ave 22895 max 22895 min
Histogram: 1 0 0 0 0 0 0 0 0 0

Total # of neighbors = 22895
Ave neighs/atom = 45.79
Neighbor list builds = 0
Dangerous builds = 0
Memory usage per processor = 1.7156 Mbytes
mystep PotEng Xy Xz Yz Lx 
          37   -7.6560723     0.134442            0            0        7.469 
          37   -7.6560723     0.141911            0            0        7.469 
Loop time of 0.000878096 on 1 procs for 1 steps with 500 atoms

Pair  time (%) = 0.000831127 (94.6511)
Neigh time (%) = 0 (0)
Comm  time (%) = 2.47955e-05 (2.82378)
Outpt time (%) = 9.05991e-06 (1.03177)
Other time (%) = 1.3113e-05 (1.49335)

Nlocal:    500 ave 500 max 500 min
Histogram: 1 0 0 0 0 0 0 0 0 0
Nghost:    2183 ave 2183 max 2183 min
Histogram: 1 0 0 0 0 0 0 0 0 0
Neighs:    22895 ave 22895 max 22895 min
Histogram: 1 0 0 0 0 0 0 0 0 0

Total # of neighbors = 22895
Ave neighs/atom = 45.79
Neighbor list builds = 0
Dangerous builds = 0
WARNING: No fixes defined, atoms won't move (verlet.cpp:52)
Memory usage per processor = 1.7156 Mbytes
mystep PotEng Xy Xz Yz Lx 
          37   -7.6559919     0.141911            0            0        7.469 
Loop time of 0 on 1 procs for 0 steps with 500 atoms

Pair  time (%) = 0 (0)
Neigh time (%) = 0 (0)
Comm  time (%) = 0 (0)
Outpt time (%) = 0 (0)
Other time (%) = 0 (0)

Nlocal:    500 ave 500 max 500 min
Histogram: 1 0 0 0 0 0 0 0 0 0
Nghost:    2183 ave 2183 max 2183 min
Histogram: 1 0 0 0 0 0 0 0 0 0
Neighs:    22887 ave 22887 max 22887 min
Histogram: 1 0 0 0 0 0 0 0 0 0

Total # of neighbors = 22887
Ave neighs/atom = 45.774
Neighbor list builds = 0
Dangerous builds = 0
WARNING: Resetting reneighboring criteria during minimization (min.cpp:166)
Memory usage per processor = 2.43658 Mbytes
mystep PotEng Xy Xz Yz Lx 
          38   -7.6559919     0.141911            0            0        7.469 
          38   -7.6560078     0.141911            0            0        7.469 
Loop time of 0.174303 on 1 procs for 21 steps with 500 atoms

Minimization stats:
  Stopping criterion = energy tolerance
  Energy initial, next-to-last, final = 
        -7.65599190755     -7.65600771064     -7.65600777101
  Force two-norm initial, final = 1.3975 0.114009
  Force max component initial, final = 0.144155 0.0172178
  Final line search alpha, max atom move = 0.000976562 1.68142e-05
  Iterations, force evaluations = 21 199

Pair  time (%) = 0.166576 (95.5671)
Neigh time (%) = 0 (0)
Comm  time (%) = 0.00500178 (2.86959)
Outpt time (%) = 0 (0)
Other time (%) = 0.00272489 (1.5633)

Nlocal:    500 ave 500 max 500 min
Histogram: 1 0 0 0 0 0 0 0 0 0
Nghost:    2183 ave 2183 max 2183 min
Histogram: 1 0 0 0 0 0 0 0 0 0
Neighs:    22887 ave 22887 max 22887 min
Histogram: 1 0 0 0 0 0 0 0 0 0

Total # of neighbors = 22887
Ave neighs/atom = 45.774
Neighbor list builds = 0
Dangerous builds = 0
WARNING: No fixes defined, atoms won't move (verlet.cpp:52)
Memory usage per processor = 1.7156 Mbytes
mystep PotEng Xy Xz Yz Lx 
          38   -7.6560078     0.141911            0            0        7.469 
Loop time of 0 on 1 procs for 0 steps with 500 atoms

Pair  time (%) = 0 (0)
Neigh time (%) = 0 (0)
Comm  time (%) = 0 (0)
Outpt time (%) = 0 (0)
Other time (%) = 0 (0)

Nlocal:    500 ave 500 max 500 min
Histogram: 1 0 0 0 0 0 0 0 0 0
Nghost:    2183 ave 2183 max 2183 min
Histogram: 1 0 0 0 0 0 0 0 0 0
Neighs:    22893 ave 22893 max 22893 min
Histogram: 1 0 0 0 0 0 0 0 0 0

Total # of neighbors = 22893
Ave neighs/atom = 45.786
Neighbor list builds = 0
Dangerous builds = 0
Memory usage per processor = 1.7156 Mbytes
mystep PotEng Xy Xz Yz Lx 
          39   -7.6560078     0.141911            0            0        7.469 
          39   -7.6560078      0.14938            0            0        7.469 
Loop time of 0.000895023 on 1 procs for 1 steps with 500 atoms

Pair  time (%) = 0.000844955 (94.406)
Neigh time (%) = 0 (0)
Comm  time (%) = 2.5034e-05 (2.79702)
Outpt time (%) = 1.21593e-05 (1.35855)
Other time (%) = 1.28746e-05 (1.43847)

Nlocal:    500 ave 500 max 500 min
Histogram: 1 0 0 0 0 0 0 0 0 0
Nghost:    2183 ave 2183 max 2183 min
Histogram: 1 0 0 0 0 0 0 0 0 0
Neighs:    22893 ave 22893 max 22893 min
Histogram: 1 0 0 0 0 0 0 0 0 0

Total # of neighbors = 22893
Ave neighs/atom = 45.786
Neighbor list builds = 0
Dangerous builds = 0
WARNING: No fixes defined, atoms won't move (verlet.cpp:52)
Memory usage per processor = 1.7156 Mbytes
mystep PotEng Xy Xz Yz Lx 
          39   -7.6559179      0.14938            0            0        7.469 
Loop time of 0 on 1 procs for 0 steps with 500 atoms

Pair  time (%) = 0 (0)
Neigh time (%) = 0 (0)
Comm  time (%) = 0 (0)
Outpt time (%) = 0 (0)
Other time (%) = 0 (0)

Nlocal:    500 ave 500 max 500 min
Histogram: 1 0 0 0 0 0 0 0 0 0
Nghost:    2183 ave 2183 max 2183 min
Histogram: 1 0 0 0 0 0 0 0 0 0
Neighs:    22884 ave 22884 max 22884 min
Histogram: 1 0 0 0 0 0 0 0 0 0

Total # of neighbors = 22884
Ave neighs/atom = 45.768
Neighbor list builds = 0
Dangerous builds = 0
WARNING: Resetting reneighboring criteria during minimization (min.cpp:166)
Memory usage per processor = 2.43658 Mbytes
mystep PotEng Xy Xz Yz Lx 
          40   -7.6559179      0.14938            0            0        7.469 
          40   -7.6559346      0.14938            0            0        7.469 
Loop time of 0.251981 on 1 procs for 30 steps with 500 atoms

Minimization stats:
  Stopping criterion = energy tolerance
  Energy initial, next-to-last, final = 
        -7.65591785137     -7.65593451038     -7.65593456939
  Force two-norm initial, final = 1.39183 0.191065
  Force max component initial, final = 0.142409 0.0306213
  Final line search alpha, max atom move = 0.00195312 5.98073e-05
  Iterations, force evaluations = 30 284

Pair  time (%) = 0.237118 (94.1015)
Neigh time (%) = 0.00354385 (1.4064)
Comm  time (%) = 0.00740027 (2.93684)
Outpt time (%) = 0 (0)
Other time (%) = 0.00391889 (1.55523)

Nlocal:    500 ave 500 max 500 min
Histogram: 1 0 0 0 0 0 0 0 0 0
Nghost:    2187 ave 2187 max 2187 min
Histogram: 1 0 0 0 0 0 0 0 0 0
Neighs:    22882 ave 22882 max 22882 min
Histogram: 1 0 0 0 0 0 0 0 0 0

Total # of neighbors = 22882
Ave neighs/atom = 45.764
Neighbor list builds = 2
Dangerous builds = 0
WARNING: No fixes defined, atoms won't move (verlet.cpp:52)
Memory usage per processor = 1.7156 Mbytes
mystep PotEng Xy Xz Yz Lx 
          40   -7.6559346      0.14938            0            0        7.469 
Loop time of 0 on 1 procs for 0 steps with 500 atoms

Pair  time (%) = 0 (0)
Neigh time (%) = 0 (0)
Comm  time (%) = 0 (0)
Outpt time (%) = 0 (0)
Other time (%) = 0 (0)

Nlocal:    500 ave 500 max 500 min
Histogram: 1 0 0 0 0 0 0 0 0 0
Nghost:    2187 ave 2187 max 2187 min
Histogram: 1 0 0 0 0 0 0 0 0 0
Neighs:    22886 ave 22886 max 22886 min
Histogram: 1 0 0 0 0 0 0 0 0 0

Total # of neighbors = 22886
Ave neighs/atom = 45.772
Neighbor list builds = 0
Dangerous builds = 0
Memory usage per processor = 1.7156 Mbytes
mystep PotEng Xy Xz Yz Lx 
          41   -7.6559346      0.14938            0            0        7.469 
          41   -7.6559346     0.156849            0            0        7.469 
Loop time of 0.000880003 on 1 procs for 1 steps with 500 atoms

Pair  time (%) = 0.000831127 (94.4459)
Neigh time (%) = 0 (0)
Comm  time (%) = 2.6226e-05 (2.98022)
Outpt time (%) = 9.05991e-06 (1.02953)
Other time (%) = 1.35899e-05 (1.5443)

Nlocal:    500 ave 500 max 500 min
Histogram: 1 0 0 0 0 0 0 0 0 0
Nghost:    2187 ave 2187 max 2187 min
Histogram: 1 0 0 0 0 0 0 0 0 0
Neighs:    22886 ave 22886 max 22886 min
Histogram: 1 0 0 0 0 0 0 0 0 0

Total # of neighbors = 22886
Ave neighs/atom = 45.772
Neighbor list builds = 0
Dangerous builds = 0
WARNING: No fixes defined, atoms won't move (verlet.cpp:52)
Memory usage per processor = 1.7156 Mbytes
mystep PotEng Xy Xz Yz Lx 
          41   -7.6558339     0.156849            0            0        7.469 
Loop time of 0 on 1 procs for 0 steps with 500 atoms

Pair  time (%) = 0 (0)
Neigh time (%) = 0 (0)
Comm  time (%) = 0 (0)
Outpt time (%) = 0 (0)
Other time (%) = 0 (0)

Nlocal:    500 ave 500 max 500 min
Histogram: 1 0 0 0 0 0 0 0 0 0
Nghost:    2187 ave 2187 max 2187 min
Histogram: 1 0 0 0 0 0 0 0 0 0
Neighs:    22884 ave 22884 max 22884 min
Histogram: 1 0 0 0 0 0 0 0 0 0

Total # of neighbors = 22884
Ave neighs/atom = 45.768
Neighbor list builds = 0
Dangerous builds = 0
WARNING: Resetting reneighboring criteria during minimization (min.cpp:166)
Memory usage per processor = 2.43658 Mbytes
mystep PotEng Xy Xz Yz Lx 
          42   -7.6558339     0.156849            0            0        7.469 
          42   -7.6558572     0.156849            0            0        7.469 
Loop time of 0.453748 on 1 procs for 55 steps with 500 atoms

Minimization stats:
  Stopping criterion = energy tolerance
  Energy initial, next-to-last, final = 
        -7.65583394762     -7.65585709531     -7.65585716955
  Force two-norm initial, final = 1.41772 0.187134
  Force max component initial, final = 0.150581 0.0336238
  Final line search alpha, max atom move = 0.00195312 6.56715e-05
  Iterations, force evaluations = 55 517

Pair  time (%) = 0.431643 (95.1283)
Neigh time (%) = 0.00177097 (0.390299)
Comm  time (%) = 0.0131981 (2.90869)
Outpt time (%) = 0 (0)
Other time (%) = 0.00713634 (1.57276)

Nlocal:    500 ave 500 max 500 min
Histogram: 1 0 0 0 0 0 0 0 0 0
Nghost:    2178 ave 2178 max 2178 min
Histogram: 1 0 0 0 0 0 0 0 0 0
Neighs:    22881 ave 22881 max 22881 min
Histogram: 1 0 0 0 0 0 0 0 0 0

Total # of neighbors = 22881
Ave neighs/atom = 45.762
Neighbor list builds = 1
Dangerous builds = 0
WARNING: No fixes defined, atoms won't move (verlet.cpp:52)
Memory usage per processor = 1.7156 Mbytes
mystep PotEng Xy Xz Yz Lx 
          42   -7.6558572     0.156849            0            0        7.469 
Loop time of 0 on 1 procs for 0 steps with 500 atoms

Pair  time (%) = 0 (0)
Neigh time (%) = 0 (0)
Comm  time (%) = 0 (0)
Outpt time (%) = 0 (0)
Other time (%) = 0 (0)

Nlocal:    500 ave 500 max 500 min
Histogram: 1 0 0 0 0 0 0 0 0 0
Nghost:    2187 ave 2187 max 2187 min
Histogram: 1 0 0 0 0 0 0 0 0 0
Neighs:    22889 ave 22889 max 22889 min
Histogram: 1 0 0 0 0 0 0 0 0 0

Total # of neighbors = 22889
Ave neighs/atom = 45.778
Neighbor list builds = 0
Dangerous builds = 0
Memory usage per processor = 1.7156 Mbytes
mystep PotEng Xy Xz Yz Lx 
          43   -7.6558572     0.156849            0            0        7.469 
          43   -7.6558572     0.164318            0            0        7.469 
Loop time of 0.00088501 on 1 procs for 1 steps with 500 atoms

Pair  time (%) = 0.000836134 (94.4774)
Neigh time (%) = 0 (0)
Comm  time (%) = 2.52724e-05 (2.8556)
Outpt time (%) = 1.00136e-05 (1.13147)
Other time (%) = 1.35899e-05 (1.53556)

Nlocal:    500 ave 500 max 500 min
Histogram: 1 0 0 0 0 0 0 0 0 0
Nghost:    2187 ave 2187 max 2187 min
Histogram: 1 0 0 0 0 0 0 0 0 0
Neighs:    22889 ave 22889 max 22889 min
Histogram: 1 0 0 0 0 0 0 0 0 0

Total # of neighbors = 22889
Ave neighs/atom = 45.778
Neighbor list builds = 0
Dangerous builds = 0
WARNING: No fixes defined, atoms won't move (verlet.cpp:52)
Memory usage per processor = 1.7156 Mbytes
mystep PotEng Xy Xz Yz Lx 
          43   -7.6557488     0.164318            0            0        7.469 
Loop time of 0 on 1 procs for 0 steps with 500 atoms

Pair  time (%) = 0 (0)
Neigh time (%) = 0 (0)
Comm  time (%) = 0 (0)
Outpt time (%) = 0 (0)
Other time (%) = 0 (0)

Nlocal:    500 ave 500 max 500 min
Histogram: 1 0 0 0 0 0 0 0 0 0
Nghost:    2187 ave 2187 max 2187 min
Histogram: 1 0 0 0 0 0 0 0 0 0
Neighs:    22887 ave 22887 max 22887 min
Histogram: 1 0 0 0 0 0 0 0 0 0

Total # of neighbors = 22887
Ave neighs/atom = 45.774
Neighbor list builds = 0
Dangerous builds = 0
WARNING: Resetting reneighboring criteria during minimization (min.cpp:166)
Memory usage per processor = 2.43658 Mbytes
mystep PotEng Xy Xz Yz Lx 
          44   -7.6557488     0.164318            0            0        7.469 
          44   -7.6557638     0.164318            0            0        7.469 
Loop time of 0.20885 on 1 procs for 25 steps with 500 atoms

Minimization stats:
  Stopping criterion = energy tolerance
  Energy initial, next-to-last, final = 
        -7.65574884255     -7.65576371028     -7.65576377953
  Force two-norm initial, final = 1.40721 0.13659
  Force max component initial, final = 0.135131 0.0245025
  Final line search alpha, max atom move = 0.00195312 4.78564e-05
  Iterations, force evaluations = 25 239

Pair  time (%) = 0.199508 (95.5267)
Neigh time (%) = 0 (0)
Comm  time (%) = 0.00606632 (2.90463)
Outpt time (%) = 0 (0)
Other time (%) = 0.00327611 (1.56864)

Nlocal:    500 ave 500 max 500 min
Histogram: 1 0 0 0 0 0 0 0 0 0
Nghost:    2187 ave 2187 max 2187 min
Histogram: 1 0 0 0 0 0 0 0 0 0
Neighs:    22887 ave 22887 max 22887 min
Histogram: 1 0 0 0 0 0 0 0 0 0

Total # of neighbors = 22887
Ave neighs/atom = 45.774
Neighbor list builds = 0
Dangerous builds = 0
WARNING: No fixes defined, atoms won't move (verlet.cpp:52)
Memory usage per processor = 1.7156 Mbytes
mystep PotEng Xy Xz Yz Lx 
          44   -7.6557638     0.164318            0            0        7.469 
Loop time of 0 on 1 procs for 0 steps with 500 atoms

Pair  time (%) = 0 (0)
Neigh time (%) = 0 (0)
Comm  time (%) = 0 (0)
Outpt time (%) = 0 (0)
Other time (%) = 0 (0)

Nlocal:    500 ave 500 max 500 min
Histogram: 1 0 0 0 0 0 0 0 0 0
Nghost:    2187 ave 2187 max 2187 min
Histogram: 1 0 0 0 0 0 0 0 0 0
Neighs:    22881 ave 22881 max 22881 min
Histogram: 1 0 0 0 0 0 0 0 0 0

Total # of neighbors = 22881
Ave neighs/atom = 45.762
Neighbor list builds = 0
Dangerous builds = 0
Memory usage per processor = 1.7156 Mbytes
mystep PotEng Xy Xz Yz Lx 
          45   -7.6557638     0.164318            0            0        7.469 
          45   -7.6557638     0.171787            0            0        7.469 
Loop time of 0.000879049 on 1 procs for 1 steps with 500 atoms

Pair  time (%) = 0.000830173 (94.4399)
Neigh time (%) = 0 (0)
Comm  time (%) = 2.47955e-05 (2.82072)
Outpt time (%) = 1.00136e-05 (1.13914)
Other time (%) = 1.40667e-05 (1.60022)

Nlocal:    500 ave 500 max 500 min
Histogram: 1 0 0 0 0 0 0 0 0 0
Nghost:    2187 ave 2187 max 2187 min
Histogram: 1 0 0 0 0 0 0 0 0 0
Neighs:    22881 ave 22881 max 22881 min
Histogram: 1 0 0 0 0 0 0 0 0 0

Total # of neighbors = 22881
Ave neighs/atom = 45.762
Neighbor list builds = 0
Dangerous builds = 0
WARNING: No fixes defined, atoms won't move (verlet.cpp:52)
Memory usage per processor = 1.7156 Mbytes
mystep PotEng Xy Xz Yz Lx 
          45   -7.6556441     0.171787            0            0        7.469 
Loop time of 0 on 1 procs for 0 steps with 500 atoms

Pair  time (%) = 0 (0)
Neigh time (%) = 0 (0)
Comm  time (%) = 0 (0)
Outpt time (%) = 0 (0)
Other time (%) = 0 (0)

Nlocal:    500 ave 500 max 500 min
Histogram: 1 0 0 0 0 0 0 0 0 0
Nghost:    2187 ave 2187 max 2187 min
Histogram: 1 0 0 0 0 0 0 0 0 0
Neighs:    22879 ave 22879 max 22879 min
Histogram: 1 0 0 0 0 0 0 0 0 0

Total # of neighbors = 22879
Ave neighs/atom = 45.758
Neighbor list builds = 0
Dangerous builds = 0
[...]

Pair  time (%) = 0.000832796 (94.3035)
Neigh time (%) = 0 (0)
Comm  time (%) = 2.59876e-05 (2.94276)
Outpt time (%) = 9.05991e-06 (1.02592)
Other time (%) = 1.52588e-05 (1.72786)

Nlocal:    500 ave 500 max 500 min
Histogram: 1 0 0 0 0 0 0 0 0 0
Nghost:    2184 ave 2184 max 2184 min
Histogram: 1 0 0 0 0 0 0 0 0 0
Neighs:    22900 ave 22900 max 22900 min
Histogram: 1 0 0 0 0 0 0 0 0 0

Total # of neighbors = 22900
Ave neighs/atom = 45.8
Neighbor list builds = 0
Dangerous builds = 0
WARNING: No fixes defined, atoms won't move (verlet.cpp:52)
Memory usage per processor = 1.7156 Mbytes
mystep PotEng Xy Xz Yz Lx 
         469   -7.6555067    -0.037345            0            0        7.469 
Loop time of 9.53674e-07 on 1 procs for 0 steps with 500 atoms

Pair  time (%) = 0 (0)
Neigh time (%) = 0 (0)
Comm  time (%) = 0 (0)
Outpt time (%) = 0 (0)
Other time (%) = 9.53674e-07 (100)

Nlocal:    500 ave 500 max 500 min
Histogram: 1 0 0 0 0 0 0 0 0 0
Nghost:    2184 ave 2184 max 2184 min
Histogram: 1 0 0 0 0 0 0 0 0 0
Neighs:    22896 ave 22896 max 22896 min
Histogram: 1 0 0 0 0 0 0 0 0 0

Total # of neighbors = 22896
Ave neighs/atom = 45.792
Neighbor list builds = 0
Dangerous builds = 0
WARNING: Resetting reneighboring criteria during minimization (min.cpp:166)
Memory usage per processor = 2.43658 Mbytes
mystep PotEng Xy Xz Yz Lx 
         470   -7.6555067    -0.037345            0            0        7.469 
         470   -7.6555311    -0.037345            0            0        7.469 
Loop time of 0.297002 on 1 procs for 36 steps with 500 atoms

Minimization stats:
  Stopping criterion = energy tolerance
  Energy initial, next-to-last, final = 
        -7.65550672321     -7.65553105421     -7.65553111096
  Force two-norm initial, final = 1.42711 0.129245
  Force max component initial, final = 0.174405 0.0225767
  Final line search alpha, max atom move = 0.000976562 2.20476e-05
  Iterations, force evaluations = 36 339

Pair  time (%) = 0.283519 (95.4604)
Neigh time (%) = 0 (0)
Comm  time (%) = 0.00882363 (2.9709)
Outpt time (%) = 0 (0)
Other time (%) = 0.00465918 (1.56874)

Nlocal:    500 ave 500 max 500 min
Histogram: 1 0 0 0 0 0 0 0 0 0
Nghost:    2184 ave 2184 max 2184 min
Histogram: 1 0 0 0 0 0 0 0 0 0
Neighs:    22896 ave 22896 max 22896 min
Histogram: 1 0 0 0 0 0 0 0 0 0

Total # of neighbors = 22896
Ave neighs/atom = 45.792
Neighbor list builds = 0
Dangerous builds = 0
WARNING: No fixes defined, atoms won't move (verlet.cpp:52)
Memory usage per processor = 1.7156 Mbytes
mystep PotEng Xy Xz Yz Lx 
         470   -7.6555311    -0.037345            0            0        7.469 
Loop time of 0 on 1 procs for 0 steps with 500 atoms

Pair  time (%) = 0 (0)
Neigh time (%) = 0 (0)
Comm  time (%) = 0 (0)
Outpt time (%) = 0 (0)
Other time (%) = 0 (0)

Nlocal:    500 ave 500 max 500 min
Histogram: 1 0 0 0 0 0 0 0 0 0
Nghost:    2184 ave 2184 max 2184 min
Histogram: 1 0 0 0 0 0 0 0 0 0
Neighs:    22906 ave 22906 max 22906 min
Histogram: 1 0 0 0 0 0 0 0 0 0

Total # of neighbors = 22906
Ave neighs/atom = 45.812
Neighbor list builds = 0
Dangerous builds = 0
Memory usage per processor = 1.7156 Mbytes
mystep PotEng Xy Xz Yz Lx 
         471   -7.6555311    -0.037345            0            0        7.469 
         471   -7.6555311    -0.029876            0            0        7.469 
Loop time of 0.00088191 on 1 procs for 1 steps with 500 atoms

Pair  time (%) = 0.000833988 (94.5661)
Neigh time (%) = 0 (0)
Comm  time (%) = 2.69413e-05 (3.05488)
Outpt time (%) = 1.00136e-05 (1.13544)
Other time (%) = 1.09673e-05 (1.24358)

Nlocal:    500 ave 500 max 500 min
Histogram: 1 0 0 0 0 0 0 0 0 0
Nghost:    2184 ave 2184 max 2184 min
Histogram: 1 0 0 0 0 0 0 0 0 0
Neighs:    22906 ave 22906 max 22906 min
Histogram: 1 0 0 0 0 0 0 0 0 0

Total # of neighbors = 22906
Ave neighs/atom = 45.812
Neighbor list builds = 0
Dangerous builds = 0
WARNING: No fixes defined, atoms won't move (verlet.cpp:52)
Memory usage per processor = 1.7156 Mbytes
mystep PotEng Xy Xz Yz Lx 
         471   -7.6555732    -0.029876            0            0        7.469 
Loop time of 9.53674e-07 on 1 procs for 0 steps with 500 atoms

Pair  time (%) = 0 (0)
Neigh time (%) = 0 (0)
Comm  time (%) = 0 (0)
Outpt time (%) = 0 (0)
Other time (%) = 9.53674e-07 (100)

Nlocal:    500 ave 500 max 500 min
Histogram: 1 0 0 0 0 0 0 0 0 0
Nghost:    2184 ave 2184 max 2184 min
Histogram: 1 0 0 0 0 0 0 0 0 0
Neighs:    22902 ave 22902 max 22902 min
Histogram: 1 0 0 0 0 0 0 0 0 0

Total # of neighbors = 22902
Ave neighs/atom = 45.804
Neighbor list builds = 0
Dangerous builds = 0
WARNING: Resetting reneighboring criteria during minimization (min.cpp:166)
Memory usage per processor = 2.43658 Mbytes
mystep PotEng Xy Xz Yz Lx 
         472   -7.6555732    -0.029876            0            0        7.469 
         472   -7.6559044    -0.029876            0            0        7.469 
Loop time of 1.66358 on 1 procs for 222 steps with 500 atoms

Minimization stats:
  Stopping criterion = energy tolerance
  Energy initial, next-to-last, final = 
        -7.65557321858     -7.65590439264     -7.65590444602
  Force two-norm initial, final = 1.4168 0.146207
  Force max component initial, final = 0.172219 0.0404281
  Final line search alpha, max atom move = 0.00195312 7.89612e-05
  Iterations, force evaluations = 222 1878

Pair  time (%) = 1.56829 (94.2718)
Neigh time (%) = 0.0193896 (1.16554)
Comm  time (%) = 0.0494859 (2.97466)
Outpt time (%) = 0 (0)
Other time (%) = 0.0264173 (1.58798)

Nlocal:    500 ave 500 max 500 min
Histogram: 1 0 0 0 0 0 0 0 0 0
Nghost:    2192 ave 2192 max 2192 min
Histogram: 1 0 0 0 0 0 0 0 0 0
Neighs:    22938 ave 22938 max 22938 min
Histogram: 1 0 0 0 0 0 0 0 0 0

Total # of neighbors = 22938
Ave neighs/atom = 45.876
Neighbor list builds = 11
Dangerous builds = 0
WARNING: No fixes defined, atoms won't move (verlet.cpp:52)
Memory usage per processor = 1.7156 Mbytes
mystep PotEng Xy Xz Yz Lx 
         472   -7.6559044    -0.029876            0            0        7.469 
Loop time of 0 on 1 procs for 0 steps with 500 atoms

Pair  time (%) = 0 (0)
Neigh time (%) = 0 (0)
Comm  time (%) = 0 (0)
Outpt time (%) = 0 (0)
Other time (%) = 0 (0)

Nlocal:    500 ave 500 max 500 min
Histogram: 1 0 0 0 0 0 0 0 0 0
Nghost:    2172 ave 2172 max 2172 min
Histogram: 1 0 0 0 0 0 0 0 0 0
Neighs:    22911 ave 22911 max 22911 min
Histogram: 1 0 0 0 0 0 0 0 0 0

Total # of neighbors = 22911
Ave neighs/atom = 45.822
Neighbor list builds = 0
Dangerous builds = 0
Memory usage per processor = 1.7156 Mbytes
mystep PotEng Xy Xz Yz Lx 
         473   -7.6559044    -0.029876            0            0        7.469 
         473   -7.6559044    -0.022407            0            0        7.469 
Loop time of 0.000885963 on 1 procs for 1 steps with 500 atoms

Pair  time (%) = 0.000831842 (93.8913)
Neigh time (%) = 0 (0)
Comm  time (%) = 3.00407e-05 (3.39074)
Outpt time (%) = 1.00136e-05 (1.13025)
Other time (%) = 1.40667e-05 (1.58773)

Nlocal:    500 ave 500 max 500 min
Histogram: 1 0 0 0 0 0 0 0 0 0
Nghost:    2172 ave 2172 max 2172 min
Histogram: 1 0 0 0 0 0 0 0 0 0
Neighs:    22911 ave 22911 max 22911 min
Histogram: 1 0 0 0 0 0 0 0 0 0

Total # of neighbors = 22911
Ave neighs/atom = 45.822
Neighbor list builds = 0
Dangerous builds = 0
WARNING: No fixes defined, atoms won't move (verlet.cpp:52)
Memory usage per processor = 1.7156 Mbytes
mystep PotEng Xy Xz Yz Lx 
         473   -7.6559633    -0.022407            0            0        7.469 
Loop time of 0 on 1 procs for 0 steps with 500 atoms

Pair  time (%) = 0 (0)
Neigh time (%) = 0 (0)
Comm  time (%) = 0 (0)
Outpt time (%) = 0 (0)
Other time (%) = 0 (0)

Nlocal:    500 ave 500 max 500 min
Histogram: 1 0 0 0 0 0 0 0 0 0
Nghost:    2172 ave 2172 max 2172 min
Histogram: 1 0 0 0 0 0 0 0 0 0
Neighs:    22910 ave 22910 max 22910 min
Histogram: 1 0 0 0 0 0 0 0 0 0

Total # of neighbors = 22910
Ave neighs/atom = 45.82
Neighbor list builds = 0
Dangerous builds = 0
WARNING: Resetting reneighboring criteria during minimization (min.cpp:166)
Memory usage per processor = 2.43658 Mbytes
mystep PotEng Xy Xz Yz Lx 
         474   -7.6559633    -0.022407            0            0        7.469 
         474   -7.6559749    -0.022407            0            0        7.469 
Loop time of 0.148587 on 1 procs for 17 steps with 500 atoms

Minimization stats:
  Stopping criterion = energy tolerance
  Energy initial, next-to-last, final = 
        -7.65596334857      -7.6559748354     -7.65597489396
  Force two-norm initial, final = 1.42076 0.117694
  Force max component initial, final = 0.150631 0.0255395
  Final line search alpha, max atom move = 0.00195312 4.98818e-05
  Iterations, force evaluations = 17 165

Pair  time (%) = 0.138352 (93.1119)
Neigh time (%) = 0.00350094 (2.35615)
Comm  time (%) = 0.00444221 (2.98964)
Outpt time (%) = 0 (0)
Other time (%) = 0.00229168 (1.54231)

Nlocal:    500 ave 500 max 500 min
Histogram: 1 0 0 0 0 0 0 0 0 0
Nghost:    2172 ave 2172 max 2172 min
Histogram: 1 0 0 0 0 0 0 0 0 0
Neighs:    22911 ave 22911 max 22911 min
Histogram: 1 0 0 0 0 0 0 0 0 0

Total # of neighbors = 22911
Ave neighs/atom = 45.822
Neighbor list builds = 2
Dangerous builds = 0
WARNING: No fixes defined, atoms won't move (verlet.cpp:52)
Memory usage per processor = 1.7156 Mbytes
mystep PotEng Xy Xz Yz Lx 
         474   -7.6559749    -0.022407            0            0        7.469 
Loop time of 0 on 1 procs for 0 steps with 500 atoms

Pair  time (%) = 0 (0)
Neigh time (%) = 0 (0)
Comm  time (%) = 0 (0)
Outpt time (%) = 0 (0)
Other time (%) = 0 (0)

Nlocal:    500 ave 500 max 500 min
Histogram: 1 0 0 0 0 0 0 0 0 0
Nghost:    2172 ave 2172 max 2172 min
Histogram: 1 0 0 0 0 0 0 0 0 0
Neighs:    22913 ave 22913 max 22913 min
Histogram: 1 0 0 0 0 0 0 0 0 0

Total # of neighbors = 22913
Ave neighs/atom = 45.826
Neighbor list builds = 0
Dangerous builds = 0
Memory usage per processor = 1.7156 Mbytes
mystep PotEng Xy Xz Yz Lx 
         475   -7.6559749    -0.022407            0            0        7.469 
         475   -7.6559749    -0.014938            0            0        7.469 
Loop time of 0.000882149 on 1 procs for 1 steps with 500 atoms

Pair  time (%) = 0.000833988 (94.5405)
Neigh time (%) = 0 (0)
Comm  time (%) = 2.6226e-05 (2.97297)
Outpt time (%) = 1.00136e-05 (1.13514)
Other time (%) = 1.19209e-05 (1.35135)

Nlocal:    500 ave 500 max 500 min
Histogram: 1 0 0 0 0 0 0 0 0 0
Nghost:    2172 ave 2172 max 2172 min
Histogram: 1 0 0 0 0 0 0 0 0 0
Neighs:    22913 ave 22913 max 22913 min
Histogram: 1 0 0 0 0 0 0 0 0 0

Total # of neighbors = 22913
Ave neighs/atom = 45.826
Neighbor list builds = 0
Dangerous builds = 0
WARNING: No fixes defined, atoms won't move (verlet.cpp:52)
Memory usage per processor = 1.7156 Mbytes
mystep PotEng Xy Xz Yz Lx 
         475   -7.6560191    -0.014938            0            0        7.469 
Loop time of 0 on 1 procs for 0 steps with 500 atoms

Pair  time (%) = 0 (0)
Neigh time (%) = 0 (0)
Comm  time (%) = 0 (0)
Outpt time (%) = 0 (0)
Other time (%) = 0 (0)

Nlocal:    500 ave 500 max 500 min
Histogram: 1 0 0 0 0 0 0 0 0 0
Nghost:    2172 ave 2172 max 2172 min
Histogram: 1 0 0 0 0 0 0 0 0 0
Neighs:    22914 ave 22914 max 22914 min
Histogram: 1 0 0 0 0 0 0 0 0 0

Total # of neighbors = 22914
Ave neighs/atom = 45.828
Neighbor list builds = 0
Dangerous builds = 0
WARNING: Resetting reneighboring criteria during minimization (min.cpp:166)
Memory usage per processor = 2.43658 Mbytes
mystep PotEng Xy Xz Yz Lx 
         476   -7.6560191    -0.014938            0            0        7.469 
         476   -7.6560337    -0.014938            0            0        7.469 
Loop time of 0.229483 on 1 procs for 27 steps with 500 atoms

Minimization stats:
  Stopping criterion = energy tolerance
  Energy initial, next-to-last, final = 
        -7.65601905023     -7.65603363491     -7.65603369217
  Force two-norm initial, final = 1.39701 0.210766
  Force max component initial, final = 0.138904 0.0665425
  Final line search alpha, max atom move = 0.00390625 0.000259932
  Iterations, force evaluations = 27 262

Pair  time (%) = 0.21922 (95.5277)
Neigh time (%) = 0 (0)
Comm  time (%) = 0.00669575 (2.91775)
Outpt time (%) = 0 (0)
Other time (%) = 0.00356746 (1.55456)

Nlocal:    500 ave 500 max 500 min
Histogram: 1 0 0 0 0 0 0 0 0 0
Nghost:    2172 ave 2172 max 2172 min
Histogram: 1 0 0 0 0 0 0 0 0 0
Neighs:    22914 ave 22914 max 22914 min
Histogram: 1 0 0 0 0 0 0 0 0 0

Total # of neighbors = 22914
Ave neighs/atom = 45.828
Neighbor list builds = 0
Dangerous builds = 0
WARNING: No fixes defined, atoms won't move (verlet.cpp:52)
Memory usage per processor = 1.7156 Mbytes
mystep PotEng Xy Xz Yz Lx 
         476   -7.6560337    -0.014938            0            0        7.469 
Loop time of 0 on 1 procs for 0 steps with 500 atoms

Pair  time (%) = 0 (0)
Neigh time (%) = 0 (0)
Comm  time (%) = 0 (0)
Outpt time (%) = 0 (0)
Other time (%) = 0 (0)

Nlocal:    500 ave 500 max 500 min
Histogram: 1 0 0 0 0 0 0 0 0 0
Nghost:    2172 ave 2172 max 2172 min
Histogram: 1 0 0 0 0 0 0 0 0 0
Neighs:    22909 ave 22909 max 22909 min
Histogram: 1 0 0 0 0 0 0 0 0 0

Total # of neighbors = 22909
Ave neighs/atom = 45.818
Neighbor list builds = 0
Dangerous builds = 0
Memory usage per processor = 1.7156 Mbytes
mystep PotEng Xy Xz Yz Lx 
         477   -7.6560337    -0.014938            0            0        7.469 
         477   -7.6560337    -0.007469            0            0        7.469 
Loop time of 0.000896215 on 1 procs for 1 steps with 500 atoms

Pair  time (%) = 0.000844955 (94.2804)
Neigh time (%) = 0 (0)
Comm  time (%) = 2.47955e-05 (2.76669)
Outpt time (%) = 1.21593e-05 (1.35674)
Other time (%) = 1.43051e-05 (1.59617)

Nlocal:    500 ave 500 max 500 min
Histogram: 1 0 0 0 0 0 0 0 0 0
Nghost:    2172 ave 2172 max 2172 min
Histogram: 1 0 0 0 0 0 0 0 0 0
Neighs:    22909 ave 22909 max 22909 min
Histogram: 1 0 0 0 0 0 0 0 0 0

Total # of neighbors = 22909
Ave neighs/atom = 45.818
Neighbor list builds = 0
Dangerous builds = 0
WARNING: No fixes defined, atoms won't move (verlet.cpp:52)
Memory usage per processor = 1.7156 Mbytes
mystep PotEng Xy Xz Yz Lx 
         477    -7.656066    -0.007469            0            0        7.469 
Loop time of 0 on 1 procs for 0 steps with 500 atoms

Pair  time (%) = 0 (0)
Neigh time (%) = 0 (0)
Comm  time (%) = 0 (0)
Outpt time (%) = 0 (0)
Other time (%) = 0 (0)

Nlocal:    500 ave 500 max 500 min
Histogram: 1 0 0 0 0 0 0 0 0 0
Nghost:    2172 ave 2172 max 2172 min
Histogram: 1 0 0 0 0 0 0 0 0 0
Neighs:    22909 ave 22909 max 22909 min
Histogram: 1 0 0 0 0 0 0 0 0 0

Total # of neighbors = 22909
Ave neighs/atom = 45.818
Neighbor list builds = 0
Dangerous builds = 0
WARNING: Resetting reneighboring criteria during minimization (min.cpp:166)
Memory usage per processor = 2.43658 Mbytes
mystep PotEng Xy Xz Yz Lx 
         478    -7.656066    -0.007469            0            0        7.469 
         478   -7.6560816    -0.007469            0            0        7.469 
Loop time of 0.203278 on 1 procs for 24 steps with 500 atoms

Minimization stats:
  Stopping criterion = energy tolerance
  Energy initial, next-to-last, final = 
        -7.65606603625     -7.65608150717      -7.6560815591
  Force two-norm initial, final = 1.40085 0.170061
  Force max component initial, final = 0.145076 0.0685865
  Final line search alpha, max atom move = 0.00195312 0.000133958
  Iterations, force evaluations = 24 232

Pair  time (%) = 0.194169 (95.5189)
Neigh time (%) = 0 (0)
Comm  time (%) = 0.00593567 (2.91998)
Outpt time (%) = 0 (0)
Other time (%) = 0.00317335 (1.56109)

Nlocal:    500 ave 500 max 500 min
Histogram: 1 0 0 0 0 0 0 0 0 0
Nghost:    2172 ave 2172 max 2172 min
Histogram: 1 0 0 0 0 0 0 0 0 0
Neighs:    22909 ave 22909 max 22909 min
Histogram: 1 0 0 0 0 0 0 0 0 0

Total # of neighbors = 22909
Ave neighs/atom = 45.818
Neighbor list builds = 0
Dangerous builds = 0
WARNING: No fixes defined, atoms won't move (verlet.cpp:52)
Memory usage per processor = 1.7156 Mbytes
mystep PotEng Xy Xz Yz Lx 
         478   -7.6560816    -0.007469            0            0        7.469 
Loop time of 0 on 1 procs for 0 steps with 500 atoms

Pair  time (%) = 0 (0)
Neigh time (%) = 0 (0)
Comm  time (%) = 0 (0)
Outpt time (%) = 0 (0)
Other time (%) = 0 (0)

Nlocal:    500 ave 500 max 500 min
Histogram: 1 0 0 0 0 0 0 0 0 0
Nghost:    2172 ave 2172 max 2172 min
Histogram: 1 0 0 0 0 0 0 0 0 0
Neighs:    22909 ave 22909 max 22909 min
Histogram: 1 0 0 0 0 0 0 0 0 0

Total # of neighbors = 22909
Ave neighs/atom = 45.818
Neighbor list builds = 0
Dangerous builds = 0
Memory usage per processor = 1.7156 Mbytes
mystep PotEng Xy Xz Yz Lx 
         479   -7.6560816    -0.007469            0            0        7.469 
         479   -7.6560816 -8.8817842e-16            0            0        7.469 
Loop time of 0.000882149 on 1 procs for 1 steps with 500 atoms

Pair  time (%) = 0.000832796 (94.4054)
Neigh time (%) = 0 (0)
Comm  time (%) = 2.59876e-05 (2.94595)
Outpt time (%) = 1.00136e-05 (1.13514)
Other time (%) = 1.33514e-05 (1.51351)

Nlocal:    500 ave 500 max 500 min
Histogram: 1 0 0 0 0 0 0 0 0 0
Nghost:    2172 ave 2172 max 2172 min
Histogram: 1 0 0 0 0 0 0 0 0 0
Neighs:    22909 ave 22909 max 22909 min
Histogram: 1 0 0 0 0 0 0 0 0 0

Total # of neighbors = 22909
Ave neighs/atom = 45.818
Neighbor list builds = 0
Dangerous builds = 0
WARNING: No fixes defined, atoms won't move (verlet.cpp:52)
Memory usage per processor = 1.7156 Mbytes
mystep PotEng Xy Xz Yz Lx 
         479   -7.6561021 -8.8817842e-16            0            0        7.469 
Loop time of 0 on 1 procs for 0 steps with 500 atoms

Pair  time (%) = 0 (0)
Neigh time (%) = 0 (0)
Comm  time (%) = 0 (0)
Outpt time (%) = 0 (0)
Other time (%) = 0 (0)

Nlocal:    500 ave 500 max 500 min
Histogram: 1 0 0 0 0 0 0 0 0 0
Nghost:    2172 ave 2172 max 2172 min
Histogram: 1 0 0 0 0 0 0 0 0 0
Neighs:    22909 ave 22909 max 22909 min
Histogram: 1 0 0 0 0 0 0 0 0 0

Total # of neighbors = 22909
Ave neighs/atom = 45.818
Neighbor list builds = 0
Dangerous builds = 0
WARNING: Resetting reneighboring criteria during minimization (min.cpp:166)
Memory usage per processor = 2.43658 Mbytes
mystep PotEng Xy Xz Yz Lx 
         480   -7.6561021 -8.8817842e-16            0            0        7.469 
         480   -7.6561193 -8.8817842e-16            0            0        7.469 
Loop time of 0.240798 on 1 procs for 29 steps with 500 atoms

Minimization stats:
  Stopping criterion = energy tolerance
  Energy initial, next-to-last, final = 
        -7.65610207319     -7.65611920075     -7.65611927104
  Force two-norm initial, final = 1.42548 0.232822
  Force max component initial, final = 0.155153 0.0369777
  Final line search alpha, max atom move = 0.00195312 7.22221e-05
  Iterations, force evaluations = 29 275

Pair  time (%) = 0.230012 (95.5208)
Neigh time (%) = 0 (0)
Comm  time (%) = 0.00703645 (2.92214)
Outpt time (%) = 0 (0)
Other time (%) = 0.00374937 (1.55706)

Nlocal:    500 ave 500 max 500 min
Histogram: 1 0 0 0 0 0 0 0 0 0
Nghost:    2172 ave 2172 max 2172 min
Histogram: 1 0 0 0 0 0 0 0 0 0
Neighs:    22909 ave 22909 max 22909 min
Histogram: 1 0 0 0 0 0 0 0 0 0

Total # of neighbors = 22909
Ave neighs/atom = 45.818
Neighbor list builds = 0
Dangerous builds = 0
WARNING: No fixes defined, atoms won't move (verlet.cpp:52)
Memory usage per processor = 1.7156 Mbytes
mystep PotEng Xy Xz Yz Lx 
         480   -7.6561193 -8.8817842e-16            0            0        7.469 
Loop time of 0 on 1 procs for 0 steps with 500 atoms

Pair  time (%) = 0 (0)
Neigh time (%) = 0 (0)
Comm  time (%) = 0 (0)
Outpt time (%) = 0 (0)
Other time (%) = 0 (0)

Nlocal:    500 ave 500 max 500 min
Histogram: 1 0 0 0 0 0 0 0 0 0
Nghost:    2172 ave 2172 max 2172 min
Histogram: 1 0 0 0 0 0 0 0 0 0
Neighs:    22913 ave 22913 max 22913 min
Histogram: 1 0 0 0 0 0 0 0 0 0

Total # of neighbors = 22913
Ave neighs/atom = 45.826
Neighbor list builds = 0
Dangerous builds = 0
