LAMMPS data file from restart file: timestep = 206130543, procs = 4

500 atoms

2 atom types

-3.7345000000000002e+00 3.7345000000000002e+00 xlo xhi
-3.7345000000000002e+00 3.7345000000000002e+00 ylo yhi
-3.7345000000000002e+00 3.7345000000000002e+00 zlo zhi
-8.8817841970012523e-16 0.0000000000000000e+00 0.0000000000000000e+00 xy xz yz

Masses

1 1
2 2

Pair Coeffs

1 1 1
2 0.5 0.88

Atoms

280 1 -2.8672558247743716e+00 -2.0959293041394789e+00 -2.5747728307964888e+00 -512 -512 -512
80 1 -3.0523895427149186e+00 -3.1024786951180774e+00 -2.9001288798308855e+00 -512 -512 -512
25 1 -2.4593987662041208e+00 -2.3642626564761606e+00 -3.5711989257455077e+00 -512 -512 -512
177 1 -2.1604032327749225e+00 -3.3665725461099938e+00 -3.4671088570064410e+00 -512 -512 -512
158 1 -1.8405477743894532e+00 -2.5290169229469295e+00 -2.7406344935220250e+00 -512 -512 -512
230 1 -9.1587650584412827e-01 -2.7054738763197350e+00 -2.1824199255172974e+00 -512 -512 -512
420 2 -1.7305573840381450e+00 -3.0473808472523043e+00 -2.0557426929709472e+00 -512 -512 -512
384 1 -7.7851161601023255e-01 -2.3581845504755070e+00 -3.1659862932020419e+00 -512 -512 -512
118 1 2.7256010458602153e-01 -2.2412708191962358e+00 -3.3575489908371772e+00 -512 -512 -512
257 1 -2.9170590806099250e-01 -3.2867706074614742e+00 -3.3872119501268632e+00 -181 511 -513
439 2 -1.7434765097867011e-01 -2.7371731340374312e+00 -2.6618484870028669e+00 -512 -512 -512
392 1 6.1769586108155439e-01 -3.0601235060772334e+00 -2.7702963574299715e+00 -512 -512 -512
90 1 -3.2637050678812947e+00 -4.1153395326545006e-01 -3.3105980902981611e+00 -512 -512 -512
53 1 -3.0954098713726985e+00 -1.0105421642090473e+00 -2.4194307042607370e+00 -512 -512 -512
245 1 -2.7379448467046541e+00 -1.3757787035162727e+00 -3.3714692089233780e+00 -512 -512 -512
396 1 -2.3635535600791298e+00 -5.0437912562029341e-01 -1.8732617956724431e+00 -512 -512 -512
15 1 -2.1651758491122717e+00 -5.7467845701127773e-01 -2.9829442340989520e+00 -512 -512 -512
350 1 -2.0822663110991497e+00 -1.4547973741569211e+00 -2.3803164661399485e+00 -512 -512 -512
287 1 -1.0408792196616714e+00 -1.6184247119536610e+00 -2.4618880708543753e+00 -512 -512 -512
282 1 -1.6441459137208447e+00 -1.6855683780007156e+00 -3.3911539352103723e+00 -512 -512 -512
430 2 -1.2947947793044183e+00 -9.3634801156016056e-01 -3.0299399966346763e+00 -512 -512 -512
267 1 -1.4110926395850991e+00 -6.6065767115572172e-01 -2.1977564925955750e+00 -512 -512 -512
43 1 -3.6347151903766139e-02 -1.8983269313978335e+00 -2.3902049797571396e+00 -512 -512 -512
239 1 3.2634212718956546e-01 -8.2976948114478466e-01 -3.3526184550605911e+00 -512 -512 -512
441 2 5.6608548574073092e-01 -1.5186733824181835e+00 -2.9079570571588378e+00 -512 -512 -512
235 1 -4.9080026075624250e-01 -6.4190192379818267e-01 -2.6951956434704512e+00 -512 -512 -512
183 1 4.1752107455081910e-01 -9.4658014910660038e-01 -2.2288002986270210e+00 -512 -512 -512
323 1 -6.0397070693827937e-01 -1.3687317812968698e+00 -3.4732946860580021e+00 -512 -512 -512
182 1 -2.6414896376493910e+00 -2.8431561151154257e+00 -1.8798671905685287e+00 -512 -512 -512
397 1 -3.4474008409511274e+00 -2.7842424955985070e+00 -1.1710704775153569e+00 -512 -512 -512
346 1 -2.7145555607022458e+00 -3.3324900435463936e+00 -3.6301908192191501e-01 -512 -512 -512
144 1 -2.4997185670365818e+00 -2.3603328617649497e+00 -8.6632206997953265e-01 -512 -512 -512
19 1 -3.3732405710495206e+00 -2.2298289052323583e+00 -1.8516561974428480e-01 -512 -512 -512
500 2 -3.5541122468214645e+00 -3.0914835290271920e+00 -3.5502306371841552e-01 -512 -512 -512
133 1 -1.6218803182617312e+00 -3.3497490924532443e+00 -2.1651846280503362e-01 -512 -512 -512
349 1 -1.7393458990499338e+00 -2.2336536351957079e+00 -1.7011577202959423e+00 -512 -512 -512
99 1 -1.9043435073364054e+00 -3.2393147753370930e+00 -1.2214230405566053e+00 -512 -512 -512
383 1 -1.4252175421975557e+00 -2.4113932317555733e+00 -7.0031792539901749e-01 -172 511 -513
204 1 -7.5709624316502611e-01 -3.0713960749868465e+00 -1.1963080225982874e+00 506 511 -513
324 1 -6.6537873485084065e-01 -1.9928677165994115e+00 -1.4335120660445524e+00 -512 -512 -512
365 1 1.4891914507765858e-01 -2.7515311899075683e+00 -1.7973071374009773e+00 -512 -512 -512
137 1 9.8874323312225343e-02 -2.5857822265620172e+00 -7.3184370730009451e-01 -512 -512 -512
202 1 -4.5357463834655798e-01 -3.3516626007020212e+00 -1.6095193213415637e-01 -512 -512 -512
75 1 6.3599623610061462e-01 -3.4806806484199311e+00 -3.5998132217984979e-01 -512 -512 -512
464 2 6.6427956815917932e-01 -3.1031726425722095e+00 -1.1630194452304670e+00 -512 -512 -512
354 1 -3.2173971422432834e+00 -1.8439706900833106e+00 -1.5877910514708051e+00 -512 -512 -512
206 1 -3.5877910973187501e+00 -1.1330723411615136e+00 -8.3264392430363188e-01 -512 -512 -512
192 1 -3.3862106564251464e+00 -2.0134560491136622e-01 -1.6231507134204510e+00 -512 -512 -512
485 2 -3.0413611028095491e+00 -9.9924557523005264e-01 -1.5360464459266132e+00 -512 -512 -512
299 1 -2.6782970285634353e+00 -5.3240838309773020e-01 -8.8619376287614360e-01 -512 -512 -512
2 1 -2.7071650649479642e+00 -1.4194221857363534e+00 -3.0967066229289930e-01 -512 -512 -512
417 2 -3.5100558895688052e+00 -2.4614691471520533e-01 -7.4044608034083836e-01 -512 -512 -512
22 1 -2.2417007184716335e+00 -1.3920255608384666e+00 -1.2913356220687393e+00 -512 -512 -512
482 2 -1.4430162172967447e+00 -1.3958984195746917e+00 -1.7214341752985476e+00 -512 -512 -512
368 1 -1.6215273420773255e+00 -3.3151197349737815e-01 -1.1458110967711863e+00 -512 -512 -512
484 2 -1.9724160587813384e+00 -9.3181789099019596e-01 -4.8762591478513562e-01 -512 -512 -512
332 1 -1.2562767986924830e+00 -1.2982823710738245e+00 -8.8601246343928297e-01 -512 -512 -512
467 2 -8.3720234417235639e-01 -5.1928426170310304e-01 -7.9313148934559718e-01 -512 -512 -512
70 1 -6.0013637491206984e-01 -1.8755605773899207e+00 -3.0094184600697504e-01 -512 -512 -512
175 1 -5.4964955928047265e-01 -9.2653690583789361e-01 -1.6409201879083168e+00 -512 -512 -512
305 1 3.6627930172642698e-01 -1.6824113355140322e+00 -1.3723793346367938e+00 -512 -512 -512
234 1 -1.1607516414770647e-01 -9.9758280841323232e-01 -6.9001360207915585e-01 -512 -512 -512
444 2 3.3437155670422891e-01 -7.0389939593853024e-01 -1.3896984283383502e+00 -512 -512 -512
474 2 -3.6693531906514276e+00 -1.6832855719524096e+00 -2.3618288459094687e+00 -512 -512 -512
317 1 -2.0607145062811476e+00 -8.6826231369770746e-02 -1.7197944262625686e-01 -512 -512 -512
495 2 -3.6619019145636793e+00 -2.9472507757729627e-01 -2.4872427307735454e+00 -181 511 -513
82 1 -1.2533684149060673e+00 -3.4349306494959659e+00 -2.9146332009460756e+00 506 511 -513
302 1 -3.5719660879907189e+00 -3.5434842752504330e+00 -2.0223419685326354e+00 -512 -512 -512
145 1 -2.2286423692692168e+00 -3.6661536688414222e+00 -2.4181795404355664e+00 -512 -512 -512
4 1 -3.6292327449149120e-01 -1.8511866183035064e-01 -9.6156101659132354e-02 -512 -512 -512
102 1 4.9847350672385327e-01 -1.7089284376122555e+00 -2.5473012385822003e-01 -512 -512 -512
394 1 -3.0031181998542467e-01 -3.5620427719006007e+00 -2.3070149802510627e+00 -512 -512 -512
45 1 7.9428701706320881e-01 -6.6223300462461943e-02 -2.7542650275740184e+00 -512 -512 -512
57 1 9.3740232696957859e-01 -3.5600327340744733e+00 -1.8930052846625689e+00 -512 -512 -512
399 1 -3.6600519032252272e+00 -1.8875532142782707e+00 -3.2058848757333074e+00 -512 -512 -512
215 1 1.0574062263806154e+00 -2.1696504346139589e-01 -1.6952425315997695e+00 -512 -512 -512
328 1 1.0810749569671665e+00 -1.5981829427051384e+00 -3.6356322083033388e+00 -512 -512 -512
263 1 1.0815028895355874e+00 -2.1076251771884231e+00 -2.5557524498129052e+00 -512 -512 -512
347 1 1.0209424227737149e+00 -9.0781794231237622e-01 -8.5115592490381609e-01 -512 -512 -512
186 1 1.1609281102691758e+00 -2.4800979226882705e+00 -1.5495691704258236e+00 -512 -512 -512
429 2 1.1656876046785745e+00 -1.7681862376536852e+00 -9.7803086548826679e-01 -512 -512 -512
5 1 1.1667432528951793e+00 -2.4966234680260651e+00 -4.9348723514036097e-01 -512 -512 -512
295 1 1.3158012188919641e+00 -2.6255458515929755e+00 -3.4812946651456960e+00 -512 -512 -512
74 1 1.3428648661526332e+00 -1.0489386853794298e+00 -2.7920333423824011e+00 -512 -512 -512
306 1 1.2983238855213366e+00 -1.3638735057982792e+00 -1.7842613105614360e+00 -512 -512 -512
76 1 1.3675233976641112e+00 -3.7021419935226945e+00 -3.1608211519112919e+00 -512 -512 -512
426 2 1.3908149144238124e+00 -2.9041826641778608e+00 -2.3271551171260265e+00 -512 -512 -512
26 1 1.4729018575630977e+00 -3.3762170546038757e+00 -9.7886946936388330e-01 -512 -512 -512
120 1 1.5254848641044974e+00 -2.8010057605793515e-01 -3.5378192473294536e+00 -512 -512 -512
358 1 1.5377866731499572e+00 -1.5355869597952689e+00 -1.7408744378133445e-01 -512 -512 -512
143 1 4.2262368296237662e-01 -1.4613233790885527e-02 -7.9316894826538720e-01 -512 -512 -512
13 1 -1.2725919854946572e+00 -6.4758023990845182e-03 -3.0772532008635416e+00 -512 -512 -512
220 1 -1.7269240242054860e+00 -1.6944199779048428e+00 -4.6172220372664441e-03 -512 -512 -512
345 1 1.8412851553696483e+00 -1.7894052599184951e-01 -2.4674792872221043e+00 -175 511 -513
461 2 3.6549665992401974e+00 -2.0017330996735914e+00 -9.1670982953532709e-01 506 511 -513
246 1 3.1503108160413249e+00 -2.7635133910429639e+00 -3.1554714139261200e+00 -512 -512 -512
442 2 2.7748506961736319e+00 -2.6935265065918963e+00 -2.2871764320961434e+00 -512 -512 -512
431 2 2.5289323966567214e+00 -3.1389665010520931e+00 -3.6034105063198929e-02 -512 -512 -512
438 2 3.1027347402443035e+00 -7.7325417658343465e-01 -3.7160703243383471e+00 -512 -512 -512
88 1 2.5073479647137682e+00 -3.6644490664076930e+00 -7.4240109110620889e-01 -512 -512 -512
55 1 2.4074442736724051e+00 -8.4259287018961615e-01 -3.1238749164872903e+00 -512 -512 -512
376 1 3.4218575836560849e+00 -9.9211651407284185e-01 -2.8981197897911444e+00 -512 -512 -512
3 1 1.9997414035083527e+00 -1.8656759288130425e+00 -3.1429934795496344e+00 -512 -512 -512
258 1 2.8929386627994593e+00 -1.6738122384289285e+00 -3.7104846307912354e+00 -512 -512 -512
370 1 2.0436510952478479e+00 -3.2970847224888478e+00 -1.8709780491056922e+00 -512 -512 -512
274 1 3.1547361989280085e+00 -2.6673525325667420e+00 -5.1114913791408778e-01 -512 -512 -512
371 1 2.0479629133151787e+00 -1.5874487122187939e+00 -1.0941611348127220e+00 -512 -512 -512
191 1 2.0540395097686504e+00 -2.2206187307622995e+00 -2.0444447823436955e+00 -512 -512 -512
173 1 3.4831798339689137e+00 -1.0926485478981940e+00 -1.8165899142220339e+00 -512 -512 -512
147 1 2.1097853402300690e+00 -2.9157622074832266e+00 -2.8595373242556783e+00 -512 -512 -512
293 1 3.1576619078431833e+00 -3.4112486073814141e-01 -1.1227542599664173e+00 -512 -512 -512
126 1 2.1916996034866973e+00 -2.6197232538764492e+00 -1.0053766874102794e+00 -512 -512 -512
494 2 3.2421690095181188e+00 -7.9059876770819448e-01 -3.4441128149878164e-01 -512 -512 -512
405 2 2.7867959357520662e+00 -1.1323799030448694e+00 -1.2574192941667088e+00 -512 -512 -512
41 1 3.0014832726871128e+00 -1.9969437953245530e+00 -1.5130578582527217e+00 -512 -512 -512
351 1 2.9207127508882977e+00 -3.5573214628445604e+00 -2.4605173102695450e+00 -512 -512 -512
9 1 2.1491341001562749e+00 -3.3331685017245416e-01 -1.4769561409893361e+00 -512 -512 -512
294 1 3.0246909629210417e+00 -3.0684040645584605e+00 -1.5201052630680456e+00 -512 -512 -512
78 1 2.5144543006357574e+00 -3.6929516066219454e+00 -3.4453967188161143e+00 -512 -512 -512
161 1 2.9086732105662709e+00 -3.1528155550207737e-01 -2.2411864889054725e+00 -512 -512 -512
155 1 2.9667394181543796e+00 -1.6081131344238924e+00 -4.9135640437526984e-01 -512 -512 -512
122 1 2.9280730693092170e+00 -1.8740169531706468e+00 -2.5961984425067417e+00 -192 511 -513
165 1 2.3322505165436422e+00 -1.1864322560346383e+00 -2.0725444863189146e+00 -512 -512 -512
112 1 3.6752689802612539e+00 -2.5400512238164845e+00 -2.2238406962093347e+00 -512 -512 -512
47 1 2.3673166564034607e+00 -7.3600533016608649e-01 -5.3877885526129266e-01 -512 -512 -512
373 1 3.6219969290432643e+00 -3.7306908321664141e+00 -9.5829654696469335e-01 -512 -512 -512
68 1 -3.4431027328388462e+00 -3.1991486284275159e+00 1.6248605655611823e+00 510 511 -513
343 1 -3.3865076354511614e+00 -3.0143963800359161e+00 5.2427394235919023e-01 -512 -512 -512
32 1 -2.6428120509255106e+00 -2.6506927790945944e+00 1.2574274588407737e+00 -512 -512 -512
491 2 -2.5989488817190596e+00 -3.3679629462339080e+00 5.9942780803011031e-01 -511 -512 -512
225 1 -2.3317368095416233e+00 -2.5500807212498566e+00 2.1145522884315415e-01 -512 -512 -512
286 1 -1.7946993507273208e+00 -3.1853876173492401e+00 8.9466443802557416e-01 509 511 -513
393 1 -1.0932083846000449e+00 -2.5992426764377008e+00 3.6266198610350253e-01 510 511 -513
348 1 -9.8136802312368987e-01 -2.7832526450283561e+00 1.5411982721224420e+00 -512 -512 -512
12 1 -1.7457442386114568e+00 -2.0682159681544299e+00 1.0352714397913823e+00 -511 -512 -512
108 1 -4.5786776247819905e-02 -2.4650376422681921e+00 3.8095736502942623e-01 -510 -512 -512
372 1 1.4683742034753156e-01 -2.6407714864911238e+00 1.5716934029501268e+00 -510 -512 -512
241 1 -3.2686528326387121e-01 -3.3599175338183755e+00 9.4969988496298763e-01 -511 -512 -512
480 2 5.4442836153837204e-01 -3.4813896449485711e+00 1.4983331605090195e+00 -512 -512 -512
297 1 7.3128998159564551e-01 -3.0975478477803766e+00 6.9542162751520875e-01 511 511 -513
322 1 5.0951038177898988e-01 -1.6743582178998007e+00 8.2267220868148216e-01 -512 -512 -512
473 2 8.2124423532518120e-01 -2.3212160173434557e+00 2.8613901926055929e-01 -512 -512 -512
20 1 -2.7922520082147306e+00 -1.7110353748979503e+00 7.1769944879207470e-01 -512 -512 -512
447 2 -2.9240305537754536e+00 -7.7174151415195702e-01 9.2366264938432563e-01 -510 -512 -512
314 1 -3.3914120179073399e+00 -1.2431911889601941e+00 1.5014663241863366e+00 510 511 -513
252 1 -2.2829808489167331e+00 -1.2089374057385966e+00 1.5346403430483861e+00 -512 -512 -512
86 1 -2.9046556123699849e+00 -3.3895463009333726e-01 1.7340654008643672e+00 -512 -512 -512
224 1 -2.1834325184290178e+00 -8.9216377162956118e-01 4.8215507792180157e-01 -512 -512 -512
445 2 -1.0128543592502974e+00 -1.7216222127682848e+00 4.7707981066412719e-01 510 511 -513
379 1 -1.7661977095487165e+00 -2.5966090638552464e-01 1.6125422194997516e+00 -511 -512 -512
361 1 -1.2986923575228295e+00 -1.0887258353336562e+00 1.0242273328017046e+00 -512 -512 -512
443 2 -1.6250799911827869e+00 -2.1723132734355666e-01 6.4917550298087390e-01 -512 -512 -512
154 1 -8.3987021664828365e-01 -7.4337652172666902e-01 1.9187806563813514e+00 -512 -512 -512
203 1 -5.4341870793516378e-01 -1.8802612695642413e+00 1.1925697212030584e+00 -511 -512 -512
54 1 -7.5867029828051979e-01 -1.7120428819172995e-01 9.1545337325832099e-01 511 511 -513
132 1 -3.4266235082034457e-01 -1.1402653849816251e+00 4.3193167446699432e-01 -512 -512 -512
199 1 1.1126990520978453e-01 -1.1465949717334714e+00 1.6538772394155914e+00 -512 -512 -512
408 2 5.9821512719387737e-02 -5.7483995589786341e-01 9.5613976259827504e-01 -511 -512 -512
10 1 -3.3959673399661372e+00 -2.1494107792053962e+00 2.0414057132604664e+00 511 511 -513
471 2 -2.7393244881033141e+00 -2.9078963162760383e+00 2.1219707395382152e+00 -511 -512 -512
380 1 -3.4213904117751932e+00 -3.0073070070957657e+00 2.6632840159282751e+00 511 511 -513
334 1 -2.3191061214306479e+00 -2.1139561456491651e+00 2.1395615191692827e+00 -512 -512 -512
96 1 -2.3416676862944432e+00 -2.8995880204182245e+00 2.9862158637124847e+00 510 511 -513
92 1 -2.9189188428703177e+00 -1.9727309271083642e+00 3.0356473713947509e+00 -512 -512 -512
301 1 -1.8879958970529873e+00 -3.1321872442035295e+00 2.0127240843207237e+00 -509 -512 -512
136 1 -1.0777372008405512e+00 -2.6639441871419023e+00 2.5760560668535342e+00 -511 -512 -512
414 2 -9.7610250608649096e-01 -3.4665480774115220e+00 2.2529491639723251e+00 -512 -512 -512
450 2 -9.8686434260273925e-01 -2.0175813383800034e+00 3.5021754123974502e+00 511 511 -513
27 1 -1.7445230596085128e+00 -2.0071617355748246e+00 3.0458585515029779e+00 -512 -512 -512
44 1 5.4390300394371716e-01 -3.3308297346707039e+00 2.4102909767385863e+00 -512 -512 -512
69 1 -2.8838903446530617e-01 -2.5203639543870686e+00 3.2473472859632628e+00 -512 -512 -512
459 2 -2.0488171444572911e-01 -2.8351784361401062e+00 2.3917177017669506e+00 510 511 -513
1 1 6.0191131843736878e-01 -2.3212468747363277e+00 2.4989167321590942e+00 -512 -512 -512
42 1 -4.2655897487638983e-01 -3.5631911217286389e+00 2.9710316435332929e+00 -512 -512 -512
492 2 7.7895682570015223e-01 -2.2769930621986636e+00 3.3521733936083975e+00 -512 -512 -512
66 1 -3.0661807664468363e+00 -3.5938499166171760e+00 3.5186501066737699e+00 -512 -512 -512
163 1 -2.9254148086327683e+00 -1.1088186524744570e+00 2.4647410327199712e+00 510 511 -513
121 1 -2.5926089376988339e+00 -6.1091138274358725e-01 3.3816305433051510e+00 -511 -512 -512
478 2 -3.1434293092141745e+00 -2.9954967083494433e-01 2.7399624784201699e+00 -512 -512 -512
103 1 -3.5944692287309223e+00 -1.2225144042652114e+00 3.4075753549292025e+00 -512 -512 -512
460 2 -2.2016023572448260e+00 -1.3814956983776785e+00 3.4015503044602302e+00 -512 -512 -512
8 1 -1.2288698537512759e+00 -1.6773066394988678e-01 2.7290769030864266e+00 -511 -512 -512
277 1 -1.3252149796780723e+00 -1.7417194171169936e+00 1.9734517391965931e+00 -510 -512 -512
262 1 -1.5493249557198476e+00 -7.5011662983607019e-01 3.6016121157055854e+00 -512 -512 -512
38 1 -1.8770517871892352e+00 -1.0354745072054725e+00 2.5796991502773321e+00 -512 -512 -512
60 1 -8.8833414125486243e-01 -1.3063681793827544e+00 2.9499982509175662e+00 -511 -512 -512
196 1 -3.2214538356646427e-01 -1.9161132990233591e+00 2.2801320270106040e+00 -512 -512 -512
91 1 -5.2558724751439501e-01 -3.5821607332573624e-01 3.5905793127726260e+00 510 511 -513
109 1 1.7945595504839318e-01 -1.5756655484807300e+00 3.2340353318026911e+00 509 511 -513
81 1 -4.1118377432747710e-02 -6.8459530777437960e-01 2.6346776324120742e+00 -512 -512 -512
487 2 4.8445859624960841e-01 -1.4388231408283940e+00 2.4115083181582908e+00 511 511 -513
65 1 5.5444528259411419e-01 -3.1498253074343636e+00 3.4726364953044704e+00 510 511 -513
6 1 -1.5338063887408455e+00 -3.6336468351746749e+00 2.9217519339540403e+00 -510 -512 -512
50 1 6.0132551113599186e-01 -7.0236235324080765e-01 1.3306860544660015e-01 -511 -512 -512
276 1 -1.3272775468106182e+00 -2.8597401270741787e+00 3.5972470352938433e+00 -512 -512 -512
39 1 -2.3100165189587649e+00 -4.7564595190698444e-02 2.5493706301999191e+00 -509 -512 -512
208 1 -3.7166267473223384e+00 -3.6257490462051667e-01 9.5579102238532476e-01 -512 -512 -512
201 1 8.0293303042851871e-02 -4.9567246468471104e-02 1.6913719182674822e+00 -512 -512 -512
385 1 -3.7281890383635816e+00 -2.1017815773476469e+00 9.8708094758625764e-01 -512 -512 -512
157 1 -3.1033371839559210e+00 -4.3855061859989197e-01 7.4371325850437930e-02 -509 -512 -512
340 1 8.6131961476251329e-01 -7.5178385310439477e-01 3.2205107216868698e+00 -511 -512 -512
363 1 -3.7317854757321487e+00 -1.2829976374137337e+00 2.6348670610685687e-01 -512 -512 -512
17 1 1.0106590194545064e+00 -7.6255120759074169e-01 2.1744971487902718e+00 -512 -512 -512
73 1 1.0829216597088478e+00 -1.7174705336583642e+00 1.7204891031296428e+00 -512 -512 -512
210 1 9.1665042387758922e-01 -6.6062514573727160e-01 1.1468368640368989e+00 509 511 -513
409 2 1.2140083386357543e+00 -1.2315362488634611e+00 5.5867250687737213e-01 -511 -512 -512
271 1 1.2007130801025698e+00 -2.8206668275424440e+00 1.6522192952852444e+00 -512 -512 -512
228 1 1.2959018561270166e+00 -1.6271190930535075e+00 2.7912289804723831e+00 -512 -512 -512
167 1 1.4679948671898289e+00 -2.7975196822438977e+00 2.9563407346615489e+00 -512 -512 -512
288 1 1.5158702207140116e+00 -2.1057243657735638e+00 7.6340313339345522e-01 -511 -512 -512
391 1 -3.4648537940851796e+00 -2.6581572918048622e+00 3.6482923891664787e+00 -510 -512 -512
497 2 1.5487984491286650e+00 -2.2737043277218447e+00 2.2580510178028512e+00 -512 -512 -512
451 2 -9.7715246765645070e-01 -3.7121224668507171e+00 3.6750919772390884e+00 -512 -512 -512
33 1 -1.2388811320100932e+00 -7.2662027354625680e-01 1.9372065307430297e-03 -511 -512 -512
151 1 1.6506002113280975e+00 -3.1823806667638621e+00 1.2444498715768892e-01 -509 -512 -512
387 1 1.6811598358590003e+00 -5.2221354005491927e-01 2.0141850077686785e-01 -510 -512 -512
337 1 1.6842939421203176e+00 -2.3378640081235780e-01 2.8314965016270688e+00 -510 -512 -512
493 2 1.7570993890413997e+00 -2.0408932055122717e+00 3.4432074037420679e+00 -511 -512 -512
457 2 1.7928648008418606e+00 -3.2961250490836371e+00 3.6494288429933461e+00 -512 -512 -512
242 1 1.8072603288215299e+00 -1.8414256085628367e-01 1.6437417007778437e+00 -511 -512 -512
123 1 2.2720810404697054e+00 -2.2829754493373531e+00 5.7458099530731666e-03 -512 -512 -512
437 2 3.3359181372135827e+00 -1.1605980082798024e+00 1.0528559730337190e+00 -511 -512 -512
422 2 3.3021118130651570e+00 -2.0616046136596116e+00 1.7371348767934380e-01 -511 -512 -512
356 1 3.3113060262333200e+00 -3.5983621087886100e+00 1.5052051841889735e-02 -510 -512 -512
160 1 3.2497641575315614e+00 -3.6905528877388551e+00 1.1013392130681940e+00 510 511 -513
247 1 3.3735869809440451e+00 -2.1551495184991105e+00 2.8905372011561163e+00 -511 -512 -512
240 1 1.9967725270473768e+00 -1.1404951675712360e+00 3.4067831190636864e+00 -512 -512 -512
49 1 2.8079898507435943e+00 -5.8188264985948068e-01 1.4743101278049857e+00 -512 -512 -512
116 1 3.6297818157563797e+00 -5.6062213635223790e-01 2.2150877198002203e+00 -512 -512 -512
153 1 2.5282018748562609e+00 -9.9651369068080253e-02 3.4894413816308156e+00 -511 -512 -512
34 1 3.6000795233356269e+00 -2.2186512334529374e-01 3.2455885987789590e+00 510 511 -513
113 1 2.0743040829037942e+00 -1.0733896779520480e+00 2.2059972356210014e+00 -510 -512 -512
310 1 2.7472640153541001e+00 -1.7509749822940117e+00 8.0308753243365638e-01 -511 -512 -512
386 1 2.1353400319508222e+00 -2.9732406271427787e+00 1.0744957611657875e+00 -511 -512 -512
101 1 3.0771807538257563e+00 -2.5839120632809292e+00 1.6827157207598860e+00 -510 -512 -512
97 1 2.6360302564108884e+00 -8.9746766801641620e-02 2.3877015385974460e+00 -512 -512 -512
339 1 3.1172347233229751e+00 -3.4796666101842004e+00 2.2396774897303229e+00 -511 -512 -512
217 1 2.8313008930641055e+00 -7.2405518965184745e-01 4.2472245578091217e-01 -511 -512 -512
58 1 2.1635490514442819e+00 -2.9402106341655445e+00 2.1430812101719057e+00 510 511 -513
435 2 2.7666931921412758e+00 -2.8108557524964572e+00 2.7637498424056273e+00 510 511 -513
93 1 2.1314322230715450e+00 -2.0061251163297591e+00 1.6449952268627075e+00 -510 -512 -512
124 1 2.2756467719346696e+00 -3.6060608452632863e+00 2.9612562004684881e+00 -511 -512 -512
367 1 2.3108786267760499e+00 -2.0095300253734085e+00 2.7212480136348103e+00 511 511 -513
31 1 3.0327865623499624e+00 -2.7737425136062757e+00 5.9008907521823994e-01 -509 -512 -512
472 2 3.7209410271469907e+00 -1.4158930980694175e+00 2.5230732552011319e+00 510 511 -513
292 1 2.3877363704957930e+00 -2.6542606239354369e+00 3.5671230683852806e+00 -511 -512 -512
139 1 1.9288578469914888e+00 -1.1074322101868561e+00 1.0637645050407882e+00 511 511 -513
130 1 2.9422169338140010e+00 -1.0473747436998848e+00 2.8817248984284647e+00 -512 -512 -512
207 1 3.1014262591398869e+00 -1.5305816358929651e+00 1.8900403959796432e+00 -510 -512 -512
169 1 3.2449626029197014e+00 -3.3143020246896095e+00 3.3172973511113040e+00 -511 -512 -512
490 2 2.3374788535205124e+00 -1.3717058770115362e+00 1.1392368855245172e-01 511 511 -513
21 1 -3.5574183556423895e+00 1.4901028921896784e+00 -2.3540107856703618e+00 -511 -512 -512
265 1 -3.3802193113553742e+00 7.3137256325369071e-01 -3.1270449959201567e+00 -512 -512 -512
470 2 -2.7649271732443546e+00 1.0646689678666044e+00 -2.4856500044243846e+00 -510 -512 -512
30 1 -2.8452352611804903e+00 1.4866235815511963e-01 -2.4830921754582311e+00 -511 -512 -512
100 1 -2.1375610754094332e+00 7.1228979229992495e-01 -3.0160885898894993e+00 510 511 -513
374 1 -2.9689813366803630e+00 2.1605879237011822e+00 -2.9012608819896766e+00 -510 -512 -512
352 1 -2.6932552943210899e+00 3.1873777896822415e+00 -3.1824477581315773e+00 -511 -512 -512
219 1 -2.5545717433658321e+00 2.8235377422895191e+00 -2.0925324525331064e+00 -511 -512 -512
416 2 -3.2921500408950957e+00 2.2693406244246508e+00 -2.0175270773264193e+00 -512 -512 -512
117 1 -2.6068960982502265e+00 1.7431113696141121e+00 -1.9042824455662033e+00 511 511 -513
37 1 -2.9584026667884196e+00 4.3047788053710123e-01 -6.1394258927647583e-01 510 511 -513
320 1 -3.0149363802533413e+00 8.1074299546563333e-01 -1.6313238176768801e+00 -511 -512 -512
212 1 -2.6346034504646636e+00 1.4538988896264518e+00 -7.0249122475504810e-01 510 511 -513
483 2 -2.4211950143609342e+00 2.0305362898242540e-01 -1.3433355486115204e+00 510 511 -513
214 1 -3.5467302484405305e+00 1.7273109812333103e+00 -1.2854074407773264e+00 -509 -512 -512
275 1 -3.6255254009265436e+00 1.1822379506011917e+00 -2.6130088623329151e-01 -511 -512 -512
184 1 -3.0904890000900873e+00 3.1566423181465209e+00 -3.9379975703515369e-01 -511 -512 -512
311 1 -3.5255694392769472e+00 2.8370258899837375e+00 -1.3828108608046055e+00 -512 -512 -512
170 1 -2.5918749352891108e+00 2.4372217901606121e+00 -1.0996459646591084e+00 509 511 -513
105 1 -3.5542190588641658e+00 2.2282158071801708e+00 -2.9847235547540452e-01 -511 -512 -512
400 1 -2.0350310834641583e+00 3.2615537929961698e+00 -7.5426132989360406e-01 -512 -512 -512
71 1 -3.5381244179336431e+00 2.9846360281722153e+00 -2.4770883555396450e+00 511 511 -513
300 1 -2.2138642634522672e+00 2.3068175277421710e+00 -3.6575251519650660e+00 -512 -512 -512
259 1 -2.7007949018036932e+00 1.3568452435058043e+00 -3.6459521954275056e+00 -511 -512 -512
187 1 -2.2811435846889703e+00 2.3397743724196567e+00 -8.5423556241609688e-02 -512 -512 -512
164 1 -3.6567455413072070e+00 2.7305031803088089e+00 -3.5223836828677011e+00 -509 -512 -512
119 1 -2.8258297111677808e+00 3.6680516799364926e+00 -1.3441240051929593e+00 -512 -512 -512
476 2 -2.0474856140968356e+00 3.4307495459491588e+00 -1.6383453872050757e+00 -511 -512 -512
362 1 -2.0002029246147837e+00 8.2879159554050430e-01 -1.9614462650164528e+00 -509 -512 -512
254 1 -1.9713010044632915e+00 1.7692777152892627e+00 -2.7415561909094670e+00 511 511 -513
404 2 -1.9027530222472422e+00 6.9054070776554344e-02 -2.4155873910866328e+00 -511 -512 -512
138 1 -1.8209520236576207e+00 6.9599311225557381e-01 -8.9323176407837890e-01 -511 -512 -512
67 1 -1.7201561159929790e+00 1.6907797051659723e+00 -1.3078658493907791e+00 -509 -512 -512
411 2 -1.4482528661261433e+00 3.1077613379808153e+00 -1.3630305749929139e-01 509 511 -513
325 1 -1.6379526248141949e+00 3.2012626593846094e+00 -3.6071018514742725e+00 510 511 -513
238 1 -1.5758210188984179e+00 2.9222798634491363e+00 -2.5875818420813488e+00 -511 -512 -512
115 1 -1.5692953823256768e+00 1.4891495748613006e+00 -1.9483676160881425e-01 510 511 -513
52 1 -1.5689211505705165e+00 2.7070711488867354e+00 -1.5563561971805320e+00 511 511 -513
341 1 -1.2497456081201483e+00 2.3930067868410441e+00 -5.9832882209586336e-01 -510 -512 -512
51 1 -1.1796645729513098e+00 1.0449151795694269e+00 -2.7670310690867099e+00 -511 -512 -512
456 2 -1.1551510733594066e+00 1.1385104002374118e+00 -1.7339171854550464e+00 511 511 -513
336 1 -1.0726724776784362e+00 2.9016597504621222e-01 -2.0119932302009005e+00 510 511 -513
84 1 -1.0934011148879725e+00 2.2023164350535560e+00 -3.2303597115452334e+00 511 511 -513
312 1 -9.6120054715165537e-01 3.4128795747957530e+00 -8.3600444078509106e-01 -511 -512 -512
213 1 -1.0206812479559044e+00 1.9344039645090123e+00 -2.1641946723284762e+00 -512 -512 -512
446 2 -8.2871358879423251e-01 2.2383348701622565e+00 -1.3679461699029152e+00 -512 -512 -512
28 1 -7.3884695608477458e-01 1.4566216090474318e+00 -9.6006190580546802e-01 -512 -512 -512
369 1 -7.3612914130563523e-01 3.3765199813623648e-01 -9.9866739056565823e-01 -511 -512 -512
260 1 -6.2555996616041876e-01 3.1947252833032036e+00 -3.1279212061419410e+00 509 511 -513
366 1 -5.4770013794378514e-01 2.9188212567064897e+00 -1.9083134737547636e+00 -510 -512 -512
162 1 -3.3475393892736305e-01 1.0622388013030366e+00 -2.1124227842751737e+00 510 511 -513
463 2 -2.9448064701183085e-01 2.3742257507427404e+00 -3.5938595789388796e+00 -511 -512 -512
342 1 -2.7240140990635675e-01 1.4412484604129685e+00 -3.1323683991925209e+00 -512 -512 -512
465 2 -2.5532447708007147e+00 7.0246361961511017e-02 -3.4075606425714366e+00 -510 -512 -512
309 1 -1.9865302127646167e-01 8.4571594595339805e-01 -1.9313713918316289e-01 -512 -512 -512
389 1 -1.8989021703365427e-01 2.6775285030692282e+00 -9.4457831296742434e-01 -511 -512 -512
134 1 -1.8994773367828754e-01 3.6376322404279327e-01 -2.9191470188511150e+00 -512 -512 -512
285 1 -1.0127567888802202e-01 2.3899095370099395e+00 -2.7015548774860609e+00 -510 -512 -512
194 1 4.5918030133513810e-03 1.9444428208034101e+00 -1.6592761849947100e+00 -510 -512 -512
455 2 -2.6959769328671612e-02 3.3968279777292909e+00 -4.3715526915239877e-01 -511 -512 -512
156 1 7.3908727662248097e-02 3.7003635499977627e+00 -1.2597040216048154e+00 -511 -512 -512
205 1 1.6970450776964530e-01 9.3642067916490435e-01 -1.1980050077989817e+00 511 511 -513
279 1 2.5482737582632398e-01 1.7942516182319257e+00 -4.9480207443527835e-01 511 511 -513
226 1 4.2867201186772741e-01 3.3407291083136497e+00 -2.7805211673924064e+00 -511 -512 -512
313 1 5.0043163394195611e-01 2.0214290655512337e+00 -3.5447539061621360e+00 -509 -512 -512
216 1 5.9711009966464301e-01 2.8723900082430966e+00 -1.7610433202883919e+00 510 511 -513
454 2 6.1031834395201168e-01 2.3027627041686096e+00 -1.1027301919015868e+00 -509 -512 -512
243 1 6.6527354940630579e-01 2.8406666879414062e+00 -3.5361228807648892e-01 -511 -512 -512
315 1 7.2749460642569597e-01 1.7883143975448630e+00 -2.4706256475711226e+00 510 511 -513
114 1 7.4404944097469139e-01 7.7277373663717919e-01 -2.0923184663418537e+00 511 511 -513
29 1 8.1768326208266329e-01 9.6843039342854498e-01 -3.1730396597774133e+00 -512 -512 -512
16 1 9.1591563248222174e-01 9.0861609717600400e-01 -4.1663426391926972e-01 -511 -512 -512
406 2 9.1799329998820101e-01 3.3782305795906118e+00 -1.0435991626527166e+00 511 511 -513