LAMMPS (28 Feb 2012)
Reading data file ...
  triclinic box = (-3.7345 -3.7345 -3.7345) to (3.7345 3.7345 3.7345) with tilt (-8.88178e-16 0 0)
  1 by 1 by 1 MPI processor grid
  500 atoms
  500 velocities
WARNING: No fixes defined, atoms won't move (verlet.cpp:52)
Setting up run ...
Memory usage per processor = 1.7156 Mbytes
Step Temp E_pair E_mol TotEng Press 
       0   0.49133947   -7.6547892            0   -6.9192541  -0.91828237 

Pair  time (%) = 0 (0)
Neigh time (%) = 0 (0)
Comm  time (%) = 0 (0)
Outpt time (%) = 0 (0)
Other time (%) = 9.53674e-07 (100)

Nlocal:    500 ave 500 max 500 min
Histogram: 1 0 0 0 0 0 0 0 0 0
Nghost:    2182 ave 2182 max 2182 min
Histogram: 1 0 0 0 0 0 0 0 0 0
Neighs:    22891 ave 22891 max 22891 min
Histogram: 1 0 0 0 0 0 0 0 0 0

Total # of neighbors = 22891
Ave neighs/atom = 45.782
Neighbor list builds = 0
Dangerous builds = 0
Setting atom values ...
  500 settings made for image
Changing box ...
  triclinic box = (-3.7345 -3.7345 -3.7345) to (3.7345 3.7345 3.7345) with tilt (-8.88178e-16 0 0)
WARNING: Resetting reneighboring criteria during minimization (min.cpp:166)
Setting up minimization ...
Memory usage per processor = 2.43658 Mbytes
Step Temp E_pair E_mol TotEng Press 
       0   0.49133947   -7.6547892            0   -6.9192541  -0.91828237 
       1   0.49133947   -7.6547892            0   -6.9192541  -0.91828237 

Minimization stats:
  Stopping criterion = linesearch alpha is zero
  Energy initial, next-to-last, final = 
        -7.65478924881     -7.65478924881     -7.65478924881
  Force two-norm initial, final = 0.0762375 0.0762375
  Force max component initial, final = 0.0148795 0.0148795
  Final line search alpha, max atom move = 0.000976562 1.45308e-05
  Iterations, force evaluations = 1 11

Pair  time (%) = 0.00995064 (95.6239)
Neigh time (%) = 0 (0)
Comm  time (%) = 0.000299931 (2.88228)
Outpt time (%) = 0 (0)
Other time (%) = 0.000155449 (1.49384)

Nlocal:    500 ave 500 max 500 min
Histogram: 1 0 0 0 0 0 0 0 0 0
Nghost:    2182 ave 2182 max 2182 min
Histogram: 1 0 0 0 0 0 0 0 0 0
Neighs:    22891 ave 22891 max 22891 min
Histogram: 1 0 0 0 0 0 0 0 0 0

Total # of neighbors = 22891
Ave neighs/atom = 45.782
Neighbor list builds = 0
Dangerous builds = 0
WARNING: No fixes defined, atoms won't move (verlet.cpp:52)
Setting up run ...
Memory usage per processor = 1.7156 Mbytes
mystep PotEng Xy Xz Yz Lx 
           0   -7.6547892 -8.8817842e-16            0            0        7.469 

Pair  time (%) = 0 (0)
Neigh time (%) = 0 (0)
Comm  time (%) = 0 (0)
Outpt time (%) = 0 (0)
Other time (%) = 0 (0)

Nlocal:    500 ave 500 max 500 min
Histogram: 1 0 0 0 0 0 0 0 0 0
Nghost:    2182 ave 2182 max 2182 min
Histogram: 1 0 0 0 0 0 0 0 0 0
Neighs:    22891 ave 22891 max 22891 min
Histogram: 1 0 0 0 0 0 0 0 0 0

Total # of neighbors = 22891
Ave neighs/atom = 45.782
Neighbor list builds = 0
Dangerous builds = 0
WARNING: Resetting reneighboring criteria during minimization (min.cpp:166)
Setting up minimization ...
Memory usage per processor = 2.43658 Mbytes
mystep PotEng Xy Xz Yz Lx 
           0   -7.6547892 -8.8817842e-16            0            0        7.469 
           0   -7.6547892 -8.8817842e-16            0            0        7.469 

Minimization stats:
  Stopping criterion = linesearch alpha is zero
  Energy initial, next-to-last, final = 
        -7.65478924881     -7.65478924881     -7.65478924881
  Force two-norm initial, final = 0.0762375 0.0762375
  Force max component initial, final = 0.0148795 0.0148795
  Final line search alpha, max atom move = 0.000976562 1.45308e-05
  Iterations, force evaluations = 1 11

Pair  time (%) = 0.00995135 (95.6856)
Neigh time (%) = 0 (0)
Comm  time (%) = 0.000299931 (2.88393)
Outpt time (%) = 0 (0)
Other time (%) = 0.000148773 (1.4305)

Nlocal:    500 ave 500 max 500 min
Histogram: 1 0 0 0 0 0 0 0 0 0
Nghost:    2182 ave 2182 max 2182 min
Histogram: 1 0 0 0 0 0 0 0 0 0
Neighs:    22891 ave 22891 max 22891 min
Histogram: 1 0 0 0 0 0 0 0 0 0

Total # of neighbors = 22891
Ave neighs/atom = 45.782
Neighbor list builds = 0
Dangerous builds = 0
Setting up run ...
Memory usage per processor = 1.7156 Mbytes
mystep PotEng Xy Xz Yz Lx 
           1   -7.6547892 -8.8817842e-16            0            0        7.469 
           1   -7.6547892     0.007469            0            0        7.469 

Pair  time (%) = 0.000824928 (94.1753)
Neigh time (%) = 0 (0)
Comm  time (%) = 2.59876e-05 (2.96679)
Outpt time (%) = 5.96046e-06 (0.680457)
Other time (%) = 1.90735e-05 (2.17746)

Nlocal:    500 ave 500 max 500 min
Histogram: 1 0 0 0 0 0 0 0 0 0
Nghost:    2182 ave 2182 max 2182 min
Histogram: 1 0 0 0 0 0 0 0 0 0
Neighs:    22891 ave 22891 max 22891 min
Histogram: 1 0 0 0 0 0 0 0 0 0

Total # of neighbors = 22891
Ave neighs/atom = 45.782
Neighbor list builds = 0
Dangerous builds = 0
WARNING: No fixes defined, atoms won't move (verlet.cpp:52)
Setting up run ...
Memory usage per processor = 1.7156 Mbytes
mystep PotEng Xy Xz Yz Lx 
           1   -7.6547483     0.007469            0            0        7.469 

Pair  time (%) = 0 (0)
Neigh time (%) = 0 (0)
Comm  time (%) = 0 (0)
Outpt time (%) = 0 (0)
Other time (%) = 0 (0)

Nlocal:    500 ave 500 max 500 min
Histogram: 1 0 0 0 0 0 0 0 0 0
Nghost:    2182 ave 2182 max 2182 min
Histogram: 1 0 0 0 0 0 0 0 0 0
Neighs:    22892 ave 22892 max 22892 min
Histogram: 1 0 0 0 0 0 0 0 0 0

Total # of neighbors = 22892
Ave neighs/atom = 45.784
Neighbor list builds = 0
Dangerous builds = 0
WARNING: Resetting reneighboring criteria during minimization (min.cpp:166)
Setting up minimization ...
Memory usage per processor = 2.43658 Mbytes
mystep PotEng Xy Xz Yz Lx 
           2   -7.6547483     0.007469            0            0        7.469 
           2   -7.6547601     0.007469            0            0        7.469 

Minimization stats:
  Stopping criterion = energy tolerance
  Energy initial, next-to-last, final = 
        -7.65474833155      -7.6547600546     -7.65476011524
  Force two-norm initial, final = 1.41295 0.175882
  Force max component initial, final = 0.161668 0.0261252
  Final line search alpha, max atom move = 0.00195312 5.10258e-05
  Iterations, force evaluations = 16 157

Pair  time (%) = 0.130808 (95.5591)
Neigh time (%) = 0 (0)
Comm  time (%) = 0.00392509 (2.86739)
Outpt time (%) = 0 (0)
Other time (%) = 0.00215387 (1.57347)

Nlocal:    500 ave 500 max 500 min
Histogram: 1 0 0 0 0 0 0 0 0 0
Nghost:    2182 ave 2182 max 2182 min
Histogram: 1 0 0 0 0 0 0 0 0 0
Neighs:    22892 ave 22892 max 22892 min
Histogram: 1 0 0 0 0 0 0 0 0 0

Total # of neighbors = 22892
Ave neighs/atom = 45.784
Neighbor list builds = 0
Dangerous builds = 0
WARNING: No fixes defined, atoms won't move (verlet.cpp:52)
Setting up run ...
Memory usage per processor = 1.7156 Mbytes
mystep PotEng Xy Xz Yz Lx 
           2   -7.6547601     0.007469            0            0        7.469 

Pair  time (%) = 0 (0)
Neigh time (%) = 0 (0)
Comm  time (%) = 0 (0)
Outpt time (%) = 0 (0)
Other time (%) = 9.53674e-07 (100)

Nlocal:    500 ave 500 max 500 min
Histogram: 1 0 0 0 0 0 0 0 0 0
Nghost:    2182 ave 2182 max 2182 min
Histogram: 1 0 0 0 0 0 0 0 0 0
Neighs:    22886 ave 22886 max 22886 min
Histogram: 1 0 0 0 0 0 0 0 0 0

Total # of neighbors = 22886
Ave neighs/atom = 45.772
Neighbor list builds = 0
Dangerous builds = 0
Setting up run ...
Memory usage per processor = 1.7156 Mbytes
mystep PotEng Xy Xz Yz Lx 
           3   -7.6547601     0.007469            0            0        7.469 
           3   -7.6547601     0.014938            0            0        7.469 

Pair  time (%) = 0.000825882 (94.4899)
Neigh time (%) = 0 (0)
Comm  time (%) = 2.5034e-05 (2.86416)
Outpt time (%) = 5.00679e-06 (0.572831)
Other time (%) = 1.81198e-05 (2.0731)

Nlocal:    500 ave 500 max 500 min
Histogram: 1 0 0 0 0 0 0 0 0 0
Nghost:    2182 ave 2182 max 2182 min
Histogram: 1 0 0 0 0 0 0 0 0 0
Neighs:    22886 ave 22886 max 22886 min
Histogram: 1 0 0 0 0 0 0 0 0 0

Total # of neighbors = 22886
Ave neighs/atom = 45.772
Neighbor list builds = 0
Dangerous builds = 0
WARNING: No fixes defined, atoms won't move (verlet.cpp:52)
Setting up run ...
Memory usage per processor = 1.7156 Mbytes
mystep PotEng Xy Xz Yz Lx 
           3   -7.6547043     0.014938            0            0        7.469 

Pair  time (%) = 0 (0)
Neigh time (%) = 0 (0)
Comm  time (%) = 0 (0)
Outpt time (%) = 0 (0)
Other time (%) = 0 (0)

Nlocal:    500 ave 500 max 500 min
Histogram: 1 0 0 0 0 0 0 0 0 0
Nghost:    2182 ave 2182 max 2182 min
Histogram: 1 0 0 0 0 0 0 0 0 0
Neighs:    22889 ave 22889 max 22889 min
Histogram: 1 0 0 0 0 0 0 0 0 0

Total # of neighbors = 22889
Ave neighs/atom = 45.778
Neighbor list builds = 0
Dangerous builds = 0
WARNING: Resetting reneighboring criteria during minimization (min.cpp:166)
Setting up minimization ...
Memory usage per processor = 2.43658 Mbytes
mystep PotEng Xy Xz Yz Lx 
           4   -7.6547043     0.014938            0            0        7.469 
           4   -7.6548384     0.014938            0            0        7.469 

Minimization stats:
  Stopping criterion = energy tolerance
  Energy initial, next-to-last, final = 
        -7.65470430961      -7.6548383332     -7.65483840795
  Force two-norm initial, final = 1.37047 0.129484
  Force max component initial, final = 0.168688 0.0369057
  Final line search alpha, max atom move = 0.00195312 7.20814e-05
  Iterations, force evaluations = 163 1429

Pair  time (%) = 1.18298 (94.9183)
Neigh time (%) = 0.00702405 (0.563587)
Comm  time (%) = 0.0362298 (2.90697)
Outpt time (%) = 0 (0)
Other time (%) = 0.0200796 (1.61112)

Nlocal:    500 ave 500 max 500 min
Histogram: 1 0 0 0 0 0 0 0 0 0
Nghost:    2190 ave 2190 max 2190 min
Histogram: 1 0 0 0 0 0 0 0 0 0
Neighs:    22909 ave 22909 max 22909 min
Histogram: 1 0 0 0 0 0 0 0 0 0

Total # of neighbors = 22909
Ave neighs/atom = 45.818
Neighbor list builds = 4
Dangerous builds = 0
WARNING: No fixes defined, atoms won't move (verlet.cpp:52)
Setting up run ...
Memory usage per processor = 1.7156 Mbytes
mystep PotEng Xy Xz Yz Lx 
           4   -7.6548384     0.014938            0            0        7.469 

Pair  time (%) = 0 (0)
Neigh time (%) = 0 (0)
Comm  time (%) = 0 (0)
Outpt time (%) = 0 (0)
Other time (%) = 0 (0)

Nlocal:    500 ave 500 max 500 min
Histogram: 1 0 0 0 0 0 0 0 0 0
Nghost:    2182 ave 2182 max 2182 min
Histogram: 1 0 0 0 0 0 0 0 0 0
Neighs:    22913 ave 22913 max 22913 min
Histogram: 1 0 0 0 0 0 0 0 0 0

Total # of neighbors = 22913
Ave neighs/atom = 45.826
Neighbor list builds = 0
Dangerous builds = 0
Setting up run ...
Memory usage per processor = 1.7156 Mbytes
mystep PotEng Xy Xz Yz Lx 
           5   -7.6548384     0.014938            0            0        7.469 
           5   -7.6548384     0.022407            0            0        7.469 

Pair  time (%) = 0.000838041 (94.8206)
Neigh time (%) = 0 (0)
Comm  time (%) = 2.47955e-05 (2.8055)
Outpt time (%) = 6.91414e-06 (0.782304)
Other time (%) = 1.40667e-05 (1.59158)

Nlocal:    500 ave 500 max 500 min
Histogram: 1 0 0 0 0 0 0 0 0 0
Nghost:    2182 ave 2182 max 2182 min
Histogram: 1 0 0 0 0 0 0 0 0 0
Neighs:    22913 ave 22913 max 22913 min
Histogram: 1 0 0 0 0 0 0 0 0 0

Total # of neighbors = 22913
Ave neighs/atom = 45.826
Neighbor list builds = 0
Dangerous builds = 0
WARNING: No fixes defined, atoms won't move (verlet.cpp:52)
Setting up run ...
Memory usage per processor = 1.7156 Mbytes
mystep PotEng Xy Xz Yz Lx 
           5   -7.6547998     0.022407            0            0        7.469 

Pair  time (%) = 0 (0)
Neigh time (%) = 0 (0)
Comm  time (%) = 0 (0)
Outpt time (%) = 0 (0)
Other time (%) = 0 (0)

Nlocal:    500 ave 500 max 500 min
Histogram: 1 0 0 0 0 0 0 0 0 0
Nghost:    2182 ave 2182 max 2182 min
Histogram: 1 0 0 0 0 0 0 0 0 0
Neighs:    22912 ave 22912 max 22912 min
Histogram: 1 0 0 0 0 0 0 0 0 0

Total # of neighbors = 22912
Ave neighs/atom = 45.824
Neighbor list builds = 0
Dangerous builds = 0
WARNING: Resetting reneighboring criteria during minimization (min.cpp:166)
Setting up minimization ...
Memory usage per processor = 2.43658 Mbytes
mystep PotEng Xy Xz Yz Lx 
           6   -7.6547998     0.022407            0            0        7.469 
           6   -7.6561653     0.022407            0            0        7.469 

Minimization stats:
  Stopping criterion = energy tolerance
  Energy initial, next-to-last, final = 
        -7.65479980477     -7.65616527711     -7.65616532172
  Force two-norm initial, final = 1.4067 0.13874
  Force max component initial, final = 0.16538 0.0500869
  Final line search alpha, max atom move = 0.00195312 9.78259e-05
  Iterations, force evaluations = 173 1391

Pair  time (%) = 1.15146 (93.011)
Neigh time (%) = 0.029741 (2.40238)
Comm  time (%) = 0.0368111 (2.97347)
Outpt time (%) = 0 (0)
Other time (%) = 0.0199711 (1.6132)

Nlocal:    500 ave 500 max 500 min
Histogram: 1 0 0 0 0 0 0 0 0 0
Nghost:    2182 ave 2182 max 2182 min
Histogram: 1 0 0 0 0 0 0 0 0 0
Neighs:    22914 ave 22914 max 22914 min
Histogram: 1 0 0 0 0 0 0 0 0 0

Total # of neighbors = 22914
Ave neighs/atom = 45.828
Neighbor list builds = 17
Dangerous builds = 0
WARNING: No fixes defined, atoms won't move (verlet.cpp:52)
Setting up run ...
Memory usage per processor = 1.7156 Mbytes
mystep PotEng Xy Xz Yz Lx 
           6   -7.6561653     0.022407            0            0        7.469 

Pair  time (%) = 0 (0)
Neigh time (%) = 0 (0)
Comm  time (%) = 0 (0)
Outpt time (%) = 0 (0)
Other time (%) = 0 (0)

Nlocal:    500 ave 500 max 500 min
Histogram: 1 0 0 0 0 0 0 0 0 0
Nghost:    2174 ave 2174 max 2174 min
Histogram: 1 0 0 0 0 0 0 0 0 0
Neighs:    22909 ave 22909 max 22909 min
Histogram: 1 0 0 0 0 0 0 0 0 0

Total # of neighbors = 22909
Ave neighs/atom = 45.818
Neighbor list builds = 0
Dangerous builds = 0
Setting up run ...
Memory usage per processor = 1.7156 Mbytes
mystep PotEng Xy Xz Yz Lx 
           7   -7.6561653     0.022407            0            0        7.469 
           7   -7.6561653     0.029876            0            0        7.469 

Pair  time (%) = 0.000823975 (94.919)
Neigh time (%) = 0 (0)
Comm  time (%) = 2.52724e-05 (2.91129)
Outpt time (%) = 5.00679e-06 (0.576765)
Other time (%) = 1.38283e-05 (1.59297)

Nlocal:    500 ave 500 max 500 min
Histogram: 1 0 0 0 0 0 0 0 0 0
Nghost:    2174 ave 2174 max 2174 min
Histogram: 1 0 0 0 0 0 0 0 0 0
Neighs:    22909 ave 22909 max 22909 min
Histogram: 1 0 0 0 0 0 0 0 0 0

Total # of neighbors = 22909
Ave neighs/atom = 45.818
Neighbor list builds = 0
Dangerous builds = 0
WARNING: No fixes defined, atoms won't move (verlet.cpp:52)
Setting up run ...
Memory usage per processor = 1.7156 Mbytes
mystep PotEng Xy Xz Yz Lx 
           7   -7.6561464     0.029876            0            0        7.469 

Pair  time (%) = 0 (0)
Neigh time (%) = 0 (0)
Comm  time (%) = 0 (0)
Outpt time (%) = 0 (0)
Other time (%) = 0 (0)

Nlocal:    500 ave 500 max 500 min
Histogram: 1 0 0 0 0 0 0 0 0 0
Nghost:    2174 ave 2174 max 2174 min
Histogram: 1 0 0 0 0 0 0 0 0 0
Neighs:    22908 ave 22908 max 22908 min
Histogram: 1 0 0 0 0 0 0 0 0 0

Total # of neighbors = 22908
Ave neighs/atom = 45.816
Neighbor list builds = 0
Dangerous builds = 0
WARNING: Resetting reneighboring criteria during minimization (min.cpp:166)
Setting up minimization ...
Memory usage per processor = 2.43658 Mbytes
mystep PotEng Xy Xz Yz Lx 
           8   -7.6561464     0.029876            0            0        7.469 
           8   -7.6561589     0.029876            0            0        7.469 

Minimization stats:
  Stopping criterion = energy tolerance
  Energy initial, next-to-last, final = 
        -7.65614640075      -7.6561588222     -7.65615889607
  Force two-norm initial, final = 1.40445 0.161136
  Force max component initial, final = 0.143805 0.0384652
  Final line search alpha, max atom move = 0.00113419 4.36268e-05
  Iterations, force evaluations = 18 172

Pair  time (%) = 0.143026 (95.5563)
Neigh time (%) = 0 (0)
Comm  time (%) = 0.00429392 (2.86879)
Outpt time (%) = 0 (0)
Other time (%) = 0.00235724 (1.57489)

Nlocal:    500 ave 500 max 500 min
Histogram: 1 0 0 0 0 0 0 0 0 0
Nghost:    2174 ave 2174 max 2174 min
Histogram: 1 0 0 0 0 0 0 0 0 0
Neighs:    22908 ave 22908 max 22908 min
Histogram: 1 0 0 0 0 0 0 0 0 0

Total # of neighbors = 22908
Ave neighs/atom = 45.816
Neighbor list builds = 0
Dangerous builds = 0
WARNING: No fixes defined, atoms won't move (verlet.cpp:52)
Setting up run ...
Memory usage per processor = 1.7156 Mbytes
mystep PotEng Xy Xz Yz Lx 
           8   -7.6561589     0.029876            0            0        7.469 

Pair  time (%) = 0 (0)
Neigh time (%) = 0 (0)
Comm  time (%) = 0 (0)
Outpt time (%) = 0 (0)
Other time (%) = 0 (0)

Nlocal:    500 ave 500 max 500 min
Histogram: 1 0 0 0 0 0 0 0 0 0
Nghost:    2174 ave 2174 max 2174 min
Histogram: 1 0 0 0 0 0 0 0 0 0
Neighs:    22907 ave 22907 max 22907 min
Histogram: 1 0 0 0 0 0 0 0 0 0

Total # of neighbors = 22907
Ave neighs/atom = 45.814
Neighbor list builds = 0
Dangerous builds = 0
Setting up run ...
Memory usage per processor = 1.7156 Mbytes
mystep PotEng Xy Xz Yz Lx 
           9   -7.6561589     0.029876            0            0        7.469 
           9   -7.6561589     0.037345            0            0        7.469 

Pair  time (%) = 0.00082612 (94.9575)
Neigh time (%) = 0 (0)
Comm  time (%) = 2.47955e-05 (2.8501)
Outpt time (%) = 5.00679e-06 (0.5755)
Other time (%) = 1.40667e-05 (1.61688)

Nlocal:    500 ave 500 max 500 min
Histogram: 1 0 0 0 0 0 0 0 0 0
Nghost:    2174 ave 2174 max 2174 min
Histogram: 1 0 0 0 0 0 0 0 0 0
Neighs:    22907 ave 22907 max 22907 min
Histogram: 1 0 0 0 0 0 0 0 0 0

Total # of neighbors = 22907
Ave neighs/atom = 45.814
Neighbor list builds = 0
Dangerous builds = 0
WARNING: No fixes defined, atoms won't move (verlet.cpp:52)
Setting up run ...
Memory usage per processor = 1.7156 Mbytes
mystep PotEng Xy Xz Yz Lx 
           9   -7.6561269     0.037345            0            0        7.469 

Pair  time (%) = 0 (0)
Neigh time (%) = 0 (0)
Comm  time (%) = 0 (0)
Outpt time (%) = 0 (0)
Other time (%) = 0 (0)

Nlocal:    500 ave 500 max 500 min
Histogram: 1 0 0 0 0 0 0 0 0 0
Nghost:    2174 ave 2174 max 2174 min
Histogram: 1 0 0 0 0 0 0 0 0 0
Neighs:    22903 ave 22903 max 22903 min
Histogram: 1 0 0 0 0 0 0 0 0 0

Total # of neighbors = 22903
Ave neighs/atom = 45.806
Neighbor list builds = 0
Dangerous builds = 0
WARNING: Resetting reneighboring criteria during minimization (min.cpp:166)
Setting up minimization ...
Memory usage per processor = 2.43658 Mbytes
mystep PotEng Xy Xz Yz Lx 
          10   -7.6561269     0.037345            0            0        7.469 
          10   -7.6561436     0.037345            0            0        7.469 

Minimization stats:
  Stopping criterion = energy tolerance
  Energy initial, next-to-last, final = 
        -7.65612694501     -7.65614351747     -7.65614357269
  Force two-norm initial, final = 1.43165 0.112553
  Force max component initial, final = 0.153059 0.0190559
  Final line search alpha, max atom move = 0.00195312 3.72186e-05
  Iterations, force evaluations = 23 218

Pair  time (%) = 0.180898 (95.54)
Neigh time (%) = 0 (0)
Comm  time (%) = 0.00543189 (2.86881)
Outpt time (%) = 0 (0)
Other time (%) = 0.0030129 (1.59124)

Nlocal:    500 ave 500 max 500 min
Histogram: 1 0 0 0 0 0 0 0 0 0
Nghost:    2174 ave 2174 max 2174 min
Histogram: 1 0 0 0 0 0 0 0 0 0
Neighs:    22903 ave 22903 max 22903 min
Histogram: 1 0 0 0 0 0 0 0 0 0

Total # of neighbors = 22903
Ave neighs/atom = 45.806
Neighbor list builds = 0
Dangerous builds = 0
WARNING: No fixes defined, atoms won't move (verlet.cpp:52)
Setting up run ...
Memory usage per processor = 1.7156 Mbytes
mystep PotEng Xy Xz Yz Lx 
          10   -7.6561436     0.037345            0            0        7.469 

Pair  time (%) = 0 (0)
Neigh time (%) = 0 (0)
Comm  time (%) = 0 (0)
Outpt time (%) = 0 (0)
Other time (%) = 0 (0)

Nlocal:    500 ave 500 max 500 min
Histogram: 1 0 0 0 0 0 0 0 0 0
Nghost:    2174 ave 2174 max 2174 min
Histogram: 1 0 0 0 0 0 0 0 0 0
Neighs:    22911 ave 22911 max 22911 min
Histogram: 1 0 0 0 0 0 0 0 0 0

Total # of neighbors = 22911
Ave neighs/atom = 45.822
Neighbor list builds = 0
Dangerous builds = 0
Setting up run ...
Memory usage per processor = 1.7156 Mbytes
mystep PotEng Xy Xz Yz Lx 
          11   -7.6561436     0.037345            0            0        7.469 
          11   -7.6561436     0.044814            0            0        7.469 

Pair  time (%) = 0.00082612 (94.8535)
Neigh time (%) = 0 (0)
Comm  time (%) = 2.47955e-05 (2.84698)
Outpt time (%) = 5.00679e-06 (0.57487)
Other time (%) = 1.50204e-05 (1.72461)

Nlocal:    500 ave 500 max 500 min
Histogram: 1 0 0 0 0 0 0 0 0 0
Nghost:    2174 ave 2174 max 2174 min
Histogram: 1 0 0 0 0 0 0 0 0 0
Neighs:    22911 ave 22911 max 22911 min
Histogram: 1 0 0 0 0 0 0 0 0 0

Total # of neighbors = 22911
Ave neighs/atom = 45.822
Neighbor list builds = 0
Dangerous builds = 0
WARNING: No fixes defined, atoms won't move (verlet.cpp:52)
Setting up run ...
Memory usage per processor = 1.7156 Mbytes
mystep PotEng Xy Xz Yz Lx 
          11   -7.6561024     0.044814            0            0        7.469 

Pair  time (%) = 0 (0)
Neigh time (%) = 0 (0)
Comm  time (%) = 0 (0)
Outpt time (%) = 0 (0)
Other time (%) = 0 (0)

Nlocal:    500 ave 500 max 500 min
Histogram: 1 0 0 0 0 0 0 0 0 0
Nghost:    2174 ave 2174 max 2174 min
Histogram: 1 0 0 0 0 0 0 0 0 0
Neighs:    22910 ave 22910 max 22910 min
Histogram: 1 0 0 0 0 0 0 0 0 0

Total # of neighbors = 22910
Ave neighs/atom = 45.82
Neighbor list builds = 0
Dangerous builds = 0
WARNING: Resetting reneighboring criteria during minimization (min.cpp:166)
Setting up minimization ...
Memory usage per processor = 2.43658 Mbytes
mystep PotEng Xy Xz Yz Lx 
          12   -7.6561024     0.044814            0            0        7.469 
          12   -7.6561202     0.044814            0            0        7.469 

Minimization stats:
  Stopping criterion = energy tolerance
  Energy initial, next-to-last, final = 
        -7.65610236632     -7.65612017622     -7.65612024603
  Force two-norm initial, final = 1.41624 0.250638
  Force max component initial, final = 0.139135 0.100551
  Final line search alpha, max atom move = 0.00390625 0.000392779
  Iterations, force evaluations = 36 345

Pair  time (%) = 0.286069 (95.5466)
Neigh time (%) = 0 (0)
Comm  time (%) = 0.00858426 (2.86713)
Outpt time (%) = 0 (0)
Other time (%) = 0.0047493 (1.58626)

Nlocal:    500 ave 500 max 500 min
Histogram: 1 0 0 0 0 0 0 0 0 0
Nghost:    2174 ave 2174 max 2174 min
Histogram: 1 0 0 0 0 0 0 0 0 0
Neighs:    22910 ave 22910 max 22910 min
Histogram: 1 0 0 0 0 0 0 0 0 0

Total # of neighbors = 22910
Ave neighs/atom = 45.82
Neighbor list builds = 0
Dangerous builds = 0
WARNING: No fixes defined, atoms won't move (verlet.cpp:52)
Setting up run ...
Memory usage per processor = 1.7156 Mbytes
mystep PotEng Xy Xz Yz Lx 
          12   -7.6561202     0.044814            0            0        7.469 

Pair  time (%) = 0 (0)
Neigh time (%) = 0 (0)
Comm  time (%) = 0 (0)
Outpt time (%) = 0 (0)
Other time (%) = 0 (0)

Nlocal:    500 ave 500 max 500 min
Histogram: 1 0 0 0 0 0 0 0 0 0
Nghost:    2174 ave 2174 max 2174 min
Histogram: 1 0 0 0 0 0 0 0 0 0
Neighs:    22909 ave 22909 max 22909 min
Histogram: 1 0 0 0 0 0 0 0 0 0

Total # of neighbors = 22909
Ave neighs/atom = 45.818
Neighbor list builds = 0
Dangerous builds = 0
Setting up run ...
Memory usage per processor = 1.7156 Mbytes
mystep PotEng Xy Xz Yz Lx 
          13   -7.6561202     0.044814            0            0        7.469 
          13   -7.6561202     0.052283            0            0        7.469 

Pair  time (%) = 0.000831127 (94.883)
Neigh time (%) = 0 (0)
Comm  time (%) = 2.47955e-05 (2.8307)
Outpt time (%) = 5.96046e-06 (0.680457)
Other time (%) = 1.40667e-05 (1.60588)

Nlocal:    500 ave 500 max 500 min
Histogram: 1 0 0 0 0 0 0 0 0 0
Nghost:    2174 ave 2174 max 2174 min
Histogram: 1 0 0 0 0 0 0 0 0 0
Neighs:    22909 ave 22909 max 22909 min
Histogram: 1 0 0 0 0 0 0 0 0 0

Total # of neighbors = 22909
Ave neighs/atom = 45.818
Neighbor list builds = 0
Dangerous builds = 0
WARNING: No fixes defined, atoms won't move (verlet.cpp:52)
Setting up run ...
Memory usage per processor = 1.7156 Mbytes
mystep PotEng Xy Xz Yz Lx 
          13   -7.6560698     0.052283            0            0        7.469 

Pair  time (%) = 0 (0)
Neigh time (%) = 0 (0)
Comm  time (%) = 0 (0)
Outpt time (%) = 0 (0)
Other time (%) = 0 (0)

Nlocal:    500 ave 500 max 500 min
Histogram: 1 0 0 0 0 0 0 0 0 0
Nghost:    2174 ave 2174 max 2174 min
Histogram: 1 0 0 0 0 0 0 0 0 0
Neighs:    22911 ave 22911 max 22911 min
Histogram: 1 0 0 0 0 0 0 0 0 0

Total # of neighbors = 22911
Ave neighs/atom = 45.822
Neighbor list builds = 0
Dangerous builds = 0
WARNING: Resetting reneighboring criteria during minimization (min.cpp:166)
Setting up minimization ...
Memory usage per processor = 2.43658 Mbytes
mystep PotEng Xy Xz Yz Lx 
          14   -7.6560698     0.052283            0            0        7.469 
          14    -7.656088     0.052283            0            0        7.469 

Minimization stats:
  Stopping criterion = energy tolerance
  Energy initial, next-to-last, final = 
        -7.65606982238     -7.65608790343     -7.65608797706
  Force two-norm initial, final = 1.41946 0.165776
  Force max component initial, final = 0.147645 0.0405856
  Final line search alpha, max atom move = 0.00195312 7.92687e-05
  Iterations, force evaluations = 23 218

Pair  time (%) = 0.181125 (95.5478)
Neigh time (%) = 0 (0)
Comm  time (%) = 0.00543451 (2.86683)
Outpt time (%) = 0 (0)
Other time (%) = 0.00300527 (1.58535)

Nlocal:    500 ave 500 max 500 min
Histogram: 1 0 0 0 0 0 0 0 0 0
Nghost:    2174 ave 2174 max 2174 min
Histogram: 1 0 0 0 0 0 0 0 0 0
Neighs:    22911 ave 22911 max 22911 min
Histogram: 1 0 0 0 0 0 0 0 0 0

Total # of neighbors = 22911
Ave neighs/atom = 45.822
Neighbor list builds = 0
Dangerous builds = 0
WARNING: No fixes defined, atoms won't move (verlet.cpp:52)
Setting up run ...
Memory usage per processor = 1.7156 Mbytes
mystep PotEng Xy Xz Yz Lx 
          14    -7.656088     0.052283            0            0        7.469 

Pair  time (%) = 0 (0)
Neigh time (%) = 0 (0)
Comm  time (%) = 0 (0)
Outpt time (%) = 0 (0)
Other time (%) = 1.19209e-06 (100)

Nlocal:    500 ave 500 max 500 min
Histogram: 1 0 0 0 0 0 0 0 0 0
Nghost:    2174 ave 2174 max 2174 min
Histogram: 1 0 0 0 0 0 0 0 0 0
Neighs:    22914 ave 22914 max 22914 min
Histogram: 1 0 0 0 0 0 0 0 0 0

Total # of neighbors = 22914
Ave neighs/atom = 45.828
Neighbor list builds = 0
Dangerous builds = 0
Setting up run ...
Memory usage per processor = 1.7156 Mbytes
mystep PotEng Xy Xz Yz Lx 
          15    -7.656088     0.052283            0            0        7.469 
          15    -7.656088     0.059752            0            0        7.469 

Pair  time (%) = 0.00082612 (94.9315)
Neigh time (%) = 0 (0)
Comm  time (%) = 2.6226e-05 (3.0137)
Outpt time (%) = 6.19888e-06 (0.712329)
Other time (%) = 1.16825e-05 (1.34247)

Nlocal:    500 ave 500 max 500 min
Histogram: 1 0 0 0 0 0 0 0 0 0
Nghost:    2174 ave 2174 max 2174 min
Histogram: 1 0 0 0 0 0 0 0 0 0
Neighs:    22914 ave 22914 max 22914 min
Histogram: 1 0 0 0 0 0 0 0 0 0

Total # of neighbors = 22914
Ave neighs/atom = 45.828
Neighbor list builds = 0
Dangerous builds = 0
WARNING: No fixes defined, atoms won't move (verlet.cpp:52)
Setting up run ...
Memory usage per processor = 1.7156 Mbytes
mystep PotEng Xy Xz Yz Lx 
          15   -7.6560301     0.059752            0            0        7.469 

Pair  time (%) = 0 (0)
Neigh time (%) = 0 (0)
Comm  time (%) = 0 (0)
Outpt time (%) = 0 (0)
Other time (%) = 0 (0)

Nlocal:    500 ave 500 max 500 min
Histogram: 1 0 0 0 0 0 0 0 0 0
Nghost:    2174 ave 2174 max 2174 min
Histogram: 1 0 0 0 0 0 0 0 0 0
Neighs:    22923 ave 22923 max 22923 min
Histogram: 1 0 0 0 0 0 0 0 0 0

Total # of neighbors = 22923
Ave neighs/atom = 45.846
Neighbor list builds = 0
Dangerous builds = 0
WARNING: Resetting reneighboring criteria during minimization (min.cpp:166)
Setting up minimization ...
Memory usage per processor = 2.43658 Mbytes
mystep PotEng Xy Xz Yz Lx 
          16   -7.6560301     0.059752            0            0        7.469 
          16   -7.6560687     0.059752            0            0        7.469 

Minimization stats:
  Stopping criterion = energy tolerance
  Energy initial, next-to-last, final = 
        -7.65603008627     -7.65606863691     -7.65606870693
  Force two-norm initial, final = 1.4385 0.171782
  Force max component initial, final = 0.148371 0.0516317
  Final line search alpha, max atom move = 0.00195312 0.000100843
  Iterations, force evaluations = 70 643

Pair  time (%) = 0.533196 (94.2772)
Neigh time (%) = 0.00701094 (1.23964)
Comm  time (%) = 0.0164628 (2.91088)
Outpt time (%) = 0 (0)
Other time (%) = 0.00889206 (1.57225)

Nlocal:    500 ave 500 max 500 min
Histogram: 1 0 0 0 0 0 0 0 0 0
Nghost:    2178 ave 2178 max 2178 min
Histogram: 1 0 0 0 0 0 0 0 0 0
Neighs:    22920 ave 22920 max 22920 min
Histogram: 1 0 0 0 0 0 0 0 0 0

Total # of neighbors = 22920
Ave neighs/atom = 45.84
Neighbor list builds = 4
Dangerous builds = 0
WARNING: No fixes defined, atoms won't move (verlet.cpp:52)
Setting up run ...
Memory usage per processor = 1.7156 Mbytes
mystep PotEng Xy Xz Yz Lx 
          16   -7.6560687     0.059752            0            0        7.469 

Pair  time (%) = 0 (0)
Neigh time (%) = 0 (0)
Comm  time (%) = 0 (0)
Outpt time (%) = 0 (0)
Other time (%) = 0 (0)

Nlocal:    500 ave 500 max 500 min
Histogram: 1 0 0 0 0 0 0 0 0 0
Nghost:    2178 ave 2178 max 2178 min
Histogram: 1 0 0 0 0 0 0 0 0 0
Neighs:    22910 ave 22910 max 22910 min
Histogram: 1 0 0 0 0 0 0 0 0 0

Total # of neighbors = 22910
Ave neighs/atom = 45.82
Neighbor list builds = 0
Dangerous builds = 0
Setting up run ...
Memory usage per processor = 1.7156 Mbytes
mystep PotEng Xy Xz Yz Lx 
          17   -7.6560687     0.059752            0            0        7.469 
          17   -7.6560687     0.067221            0            0        7.469 

Pair  time (%) = 0.000823975 (94.8148)
Neigh time (%) = 0 (0)
Comm  time (%) = 2.52724e-05 (2.90809)
Outpt time (%) = 5.96046e-06 (0.685871)
Other time (%) = 1.38283e-05 (1.59122)

Nlocal:    500 ave 500 max 500 min
Histogram: 1 0 0 0 0 0 0 0 0 0
Nghost:    2178 ave 2178 max 2178 min
Histogram: 1 0 0 0 0 0 0 0 0 0
Neighs:    22910 ave 22910 max 22910 min
Histogram: 1 0 0 0 0 0 0 0 0 0

Total # of neighbors = 22910
Ave neighs/atom = 45.82
Neighbor list builds = 0
Dangerous builds = 0
WARNING: No fixes defined, atoms won't move (verlet.cpp:52)
Setting up run ...
Memory usage per processor = 1.7156 Mbytes
mystep PotEng Xy Xz Yz Lx 
          17   -7.6560157     0.067221            0            0        7.469 

Pair  time (%) = 0 (0)
Neigh time (%) = 0 (0)
Comm  time (%) = 0 (0)
Outpt time (%) = 0 (0)
Other time (%) = 0 (0)

Nlocal:    500 ave 500 max 500 min
Histogram: 1 0 0 0 0 0 0 0 0 0
Nghost:    2178 ave 2178 max 2178 min
Histogram: 1 0 0 0 0 0 0 0 0 0
Neighs:    22918 ave 22918 max 22918 min
Histogram: 1 0 0 0 0 0 0 0 0 0

Total # of neighbors = 22918
Ave neighs/atom = 45.836
Neighbor list builds = 0
Dangerous builds = 0
WARNING: Resetting reneighboring criteria during minimization (min.cpp:166)
Setting up minimization ...
Memory usage per processor = 2.43658 Mbytes
mystep PotEng Xy Xz Yz Lx 
          18   -7.6560157     0.067221            0            0        7.469 
          18   -7.6562096     0.067221            0            0        7.469 

Minimization stats:
  Stopping criterion = energy tolerance
  Energy initial, next-to-last, final = 
        -7.65601565843     -7.65620955649     -7.65620963094
  Force two-norm initial, final = 1.42166 0.130096
  Force max component initial, final = 0.171483 0.0303203
  Final line search alpha, max atom move = 0.00195312 5.92194e-05
  Iterations, force evaluations = 97 813

Pair  time (%) = 0.673674 (95.2482)
Neigh time (%) = 0.00174689 (0.246986)
Comm  time (%) = 0.0204546 (2.892)
Outpt time (%) = 0 (0)
Other time (%) = 0.0114071 (1.61281)

Nlocal:    500 ave 500 max 500 min
Histogram: 1 0 0 0 0 0 0 0 0 0
Nghost:    2184 ave 2184 max 2184 min
Histogram: 1 0 0 0 0 0 0 0 0 0
Neighs:    22891 ave 22891 max 22891 min
Histogram: 1 0 0 0 0 0 0 0 0 0

Total # of neighbors = 22891
Ave neighs/atom = 45.782
Neighbor list builds = 1
Dangerous builds = 0
WARNING: No fixes defined, atoms won't move (verlet.cpp:52)
Setting up run ...
Memory usage per processor = 1.7156 Mbytes
mystep PotEng Xy Xz Yz Lx 
          18   -7.6562096     0.067221            0            0        7.469 

Pair  time (%) = 0 (0)
Neigh time (%) = 0 (0)
Comm  time (%) = 0 (0)
Outpt time (%) = 0 (0)
Other time (%) = 0 (0)

Nlocal:    500 ave 500 max 500 min
Histogram: 1 0 0 0 0 0 0 0 0 0
Nghost:    2180 ave 2180 max 2180 min
Histogram: 1 0 0 0 0 0 0 0 0 0
Neighs:    22896 ave 22896 max 22896 min
Histogram: 1 0 0 0 0 0 0 0 0 0

Total # of neighbors = 22896
Ave neighs/atom = 45.792
Neighbor list builds = 0
Dangerous builds = 0
Setting up run ...
Memory usage per processor = 1.7156 Mbytes
mystep PotEng Xy Xz Yz Lx 
          19   -7.6562096     0.067221            0            0        7.469 
          19   -7.6562096      0.07469            0            0        7.469 

Pair  time (%) = 0.000826836 (94.3673)
Neigh time (%) = 0 (0)
Comm  time (%) = 2.69413e-05 (3.07483)
Outpt time (%) = 6.19888e-06 (0.707483)
Other time (%) = 1.62125e-05 (1.85034)

Nlocal:    500 ave 500 max 500 min
Histogram: 1 0 0 0 0 0 0 0 0 0
Nghost:    2180 ave 2180 max 2180 min
Histogram: 1 0 0 0 0 0 0 0 0 0
Neighs:    22896 ave 22896 max 22896 min
Histogram: 1 0 0 0 0 0 0 0 0 0

Total # of neighbors = 22896
Ave neighs/atom = 45.792
Neighbor list builds = 0
Dangerous builds = 0
WARNING: No fixes defined, atoms won't move (verlet.cpp:52)
Setting up run ...
Memory usage per processor = 1.7156 Mbytes
mystep PotEng Xy Xz Yz Lx 
          19   -7.6562119      0.07469            0            0        7.469 

Pair  time (%) = 0 (0)
Neigh time (%) = 0 (0)
Comm  time (%) = 0 (0)
Outpt time (%) = 0 (0)
Other time (%) = 0 (0)

Nlocal:    500 ave 500 max 500 min
Histogram: 1 0 0 0 0 0 0 0 0 0
Nghost:    2180 ave 2180 max 2180 min
Histogram: 1 0 0 0 0 0 0 0 0 0
Neighs:    22893 ave 22893 max 22893 min
Histogram: 1 0 0 0 0 0 0 0 0 0

Total # of neighbors = 22893
Ave neighs/atom = 45.786
Neighbor list builds = 0
Dangerous builds = 0
WARNING: Resetting reneighboring criteria during minimization (min.cpp:166)
Setting up minimization ...
Memory usage per processor = 2.43658 Mbytes
mystep PotEng Xy Xz Yz Lx 
          20   -7.6562119      0.07469            0            0        7.469 
          20   -7.6562326      0.07469            0            0        7.469 

Minimization stats:
  Stopping criterion = energy tolerance
  Energy initial, next-to-last, final = 
        -7.65621190173     -7.65623256453     -7.65623262213
  Force two-norm initial, final = 1.42646 0.230442
  Force max component initial, final = 0.161793 0.0508613
  Final line search alpha, max atom move = 0.000909765 4.62718e-05
  Iterations, force evaluations = 43 405

Pair  time (%) = 0.336351 (95.0281)
Neigh time (%) = 0.00174999 (0.494419)
Comm  time (%) = 0.0102677 (2.90091)
Outpt time (%) = 0 (0)
Other time (%) = 0.00558043 (1.57662)

Nlocal:    500 ave 500 max 500 min
Histogram: 1 0 0 0 0 0 0 0 0 0
Nghost:    2172 ave 2172 max 2172 min
Histogram: 1 0 0 0 0 0 0 0 0 0
Neighs:    22901 ave 22901 max 22901 min
Histogram: 1 0 0 0 0 0 0 0 0 0

Total # of neighbors = 22901
Ave neighs/atom = 45.802
Neighbor list builds = 1
Dangerous builds = 0
WARNING: No fixes defined, atoms won't move (verlet.cpp:52)
Setting up run ...
Memory usage per processor = 1.7156 Mbytes
mystep PotEng Xy Xz Yz Lx 
          20   -7.6562326      0.07469            0            0        7.469 

Pair  time (%) = 0 (0)
Neigh time (%) = 0 (0)
Comm  time (%) = 0 (0)
Outpt time (%) = 0 (0)
Other time (%) = 0 (0)

Nlocal:    500 ave 500 max 500 min
Histogram: 1 0 0 0 0 0 0 0 0 0
Nghost:    2180 ave 2180 max 2180 min
Histogram: 1 0 0 0 0 0 0 0 0 0
Neighs:    22902 ave 22902 max 22902 min
Histogram: 1 0 0 0 0 0 0 0 0 0

Total # of neighbors = 22902
Ave neighs/atom = 45.804
Neighbor list builds = 0
Dangerous builds = 0
Setting up run ...
Memory usage per processor = 1.7156 Mbytes
mystep PotEng Xy Xz Yz Lx 
          21   -7.6562326      0.07469            0            0        7.469 
          21   -7.6562326     0.082159            0            0        7.469 

Pair  time (%) = 0.000828028 (94.7354)
Neigh time (%) = 0 (0)
Comm  time (%) = 2.5034e-05 (2.86416)
Outpt time (%) = 5.96046e-06 (0.681942)
Other time (%) = 1.50204e-05 (1.71849)

Nlocal:    500 ave 500 max 500 min
Histogram: 1 0 0 0 0 0 0 0 0 0
Nghost:    2180 ave 2180 max 2180 min
Histogram: 1 0 0 0 0 0 0 0 0 0
Neighs:    22902 ave 22902 max 22902 min
Histogram: 1 0 0 0 0 0 0 0 0 0

Total # of neighbors = 22902
Ave neighs/atom = 45.804
Neighbor list builds = 0
Dangerous builds = 0
WARNING: No fixes defined, atoms won't move (verlet.cpp:52)
Setting up run ...
Memory usage per processor = 1.7156 Mbytes
mystep PotEng Xy Xz Yz Lx 
          21   -7.6562291     0.082159            0            0        7.469 

Pair  time (%) = 0 (0)
Neigh time (%) = 0 (0)
Comm  time (%) = 0 (0)
Outpt time (%) = 0 (0)
Other time (%) = 1.19209e-06 (100)

Nlocal:    500 ave 500 max 500 min
Histogram: 1 0 0 0 0 0 0 0 0 0
Nghost:    2180 ave 2180 max 2180 min
Histogram: 1 0 0 0 0 0 0 0 0 0
Neighs:    22898 ave 22898 max 22898 min
Histogram: 1 0 0 0 0 0 0 0 0 0

Total # of neighbors = 22898
Ave neighs/atom = 45.796
Neighbor list builds = 0
Dangerous builds = 0
WARNING: Resetting reneighboring criteria during minimization (min.cpp:166)
Setting up minimization ...
Memory usage per processor = 2.43658 Mbytes
mystep PotEng Xy Xz Yz Lx 
          22   -7.6562291     0.082159            0            0        7.469 
          22   -7.6562466     0.082159            0            0        7.469 

Minimization stats:
  Stopping criterion = energy tolerance
  Energy initial, next-to-last, final = 
        -7.65622908814     -7.65624650197     -7.65624657101
  Force two-norm initial, final = 1.40137 0.215305
  Force max component initial, final = 0.151197 0.0431717
  Final line search alpha, max atom move = 0.00184083 7.94715e-05
  Iterations, force evaluations = 27 255

Pair  time (%) = 0.212069 (95.5384)
Neigh time (%) = 0 (0)
Comm  time (%) = 0.00641298 (2.8891)
Outpt time (%) = 0 (0)
Other time (%) = 0.00349045 (1.57247)

Nlocal:    500 ave 500 max 500 min
Histogram: 1 0 0 0 0 0 0 0 0 0
Nghost:    2180 ave 2180 max 2180 min
Histogram: 1 0 0 0 0 0 0 0 0 0
Neighs:    22898 ave 22898 max 22898 min
Histogram: 1 0 0 0 0 0 0 0 0 0

Total # of neighbors = 22898
Ave neighs/atom = 45.796
Neighbor list builds = 0
Dangerous builds = 0
WARNING: No fixes defined, atoms won't move (verlet.cpp:52)
Setting up run ...
Memory usage per processor = 1.7156 Mbytes
mystep PotEng Xy Xz Yz Lx 
          22   -7.6562466     0.082159            0            0        7.469 

Pair  time (%) = 0 (0)
Neigh time (%) = 0 (0)
Comm  time (%) = 0 (0)
Outpt time (%) = 0 (0)
Other time (%) = 0 (0)

Nlocal:    500 ave 500 max 500 min
Histogram: 1 0 0 0 0 0 0 0 0 0
Nghost:    2180 ave 2180 max 2180 min
Histogram: 1 0 0 0 0 0 0 0 0 0
Neighs:    22898 ave 22898 max 22898 min
Histogram: 1 0 0 0 0 0 0 0 0 0

Total # of neighbors = 22898
Ave neighs/atom = 45.796
Neighbor list builds = 0
Dangerous builds = 0
Setting up run ...
Memory usage per processor = 1.7156 Mbytes
mystep PotEng Xy Xz Yz Lx 
          23   -7.6562466     0.082159            0            0        7.469 
          23   -7.6562466     0.089628            0            0        7.469 

Pair  time (%) = 0.000826836 (94.8059)
Neigh time (%) = 0 (0)
Comm  time (%) = 2.5034e-05 (2.87042)
Outpt time (%) = 5.96046e-06 (0.683434)
Other time (%) = 1.43051e-05 (1.64024)

Nlocal:    500 ave 500 max 500 min
Histogram: 1 0 0 0 0 0 0 0 0 0
Nghost:    2180 ave 2180 max 2180 min
Histogram: 1 0 0 0 0 0 0 0 0 0
Neighs:    22898 ave 22898 max 22898 min
Histogram: 1 0 0 0 0 0 0 0 0 0

Total # of neighbors = 22898
Ave neighs/atom = 45.796
Neighbor list builds = 0
Dangerous builds = 0
WARNING: No fixes defined, atoms won't move (verlet.cpp:52)
Setting up run ...
Memory usage per processor = 1.7156 Mbytes
mystep PotEng Xy Xz Yz Lx 
          23   -7.6562331     0.089628            0            0        7.469 

Pair  time (%) = 0 (0)
Neigh time (%) = 0 (0)
Comm  time (%) = 0 (0)
Outpt time (%) = 0 (0)
Other time (%) = 0 (0)

Nlocal:    500 ave 500 max 500 min
Histogram: 1 0 0 0 0 0 0 0 0 0
Nghost:    2180 ave 2180 max 2180 min
Histogram: 1 0 0 0 0 0 0 0 0 0
Neighs:    22897 ave 22897 max 22897 min
Histogram: 1 0 0 0 0 0 0 0 0 0

Total # of neighbors = 22897
Ave neighs/atom = 45.794
Neighbor list builds = 0
Dangerous builds = 0
WARNING: Resetting reneighboring criteria during minimization (min.cpp:166)
Setting up minimization ...
Memory usage per processor = 2.43658 Mbytes
mystep PotEng Xy Xz Yz Lx 
          24   -7.6562331     0.089628            0            0        7.469 
          24     -7.65625     0.089628            0            0        7.469 

Minimization stats:
  Stopping criterion = energy tolerance
  Energy initial, next-to-last, final = 
        -7.65623311176     -7.65624994806     -7.65625000521
  Force two-norm initial, final = 1.45163 0.147688
  Force max component initial, final = 0.147704 0.0376098
  Final line search alpha, max atom move = 0.00195312 7.34566e-05
  Iterations, force evaluations = 28 269

Pair  time (%) = 0.22359 (95.5368)
Neigh time (%) = 0 (0)
Comm  time (%) = 0.00674558 (2.88228)
Outpt time (%) = 0 (0)
Other time (%) = 0.00370002 (1.58096)

Nlocal:    500 ave 500 max 500 min
Histogram: 1 0 0 0 0 0 0 0 0 0
Nghost:    2180 ave 2180 max 2180 min
Histogram: 1 0 0 0 0 0 0 0 0 0
Neighs:    22897 ave 22897 max 22897 min
Histogram: 1 0 0 0 0 0 0 0 0 0

Total # of neighbors = 22897
Ave neighs/atom = 45.794
Neighbor list builds = 0
Dangerous builds = 0
WARNING: No fixes defined, atoms won't move (verlet.cpp:52)
Setting up run ...
Memory usage per processor = 1.7156 Mbytes
mystep PotEng Xy Xz Yz Lx 
          24     -7.65625     0.089628            0            0        7.469 

Pair  time (%) = 0 (0)
Neigh time (%) = 0 (0)
Comm  time (%) = 0 (0)
Outpt time (%) = 0 (0)
Other time (%) = 0 (0)

Nlocal:    500 ave 500 max 500 min
Histogram: 1 0 0 0 0 0 0 0 0 0
Nghost:    2180 ave 2180 max 2180 min
Histogram: 1 0 0 0 0 0 0 0 0 0
Neighs:    22896 ave 22896 max 22896 min
Histogram: 1 0 0 0 0 0 0 0 0 0

Total # of neighbors = 22896
Ave neighs/atom = 45.792
Neighbor list builds = 0
Dangerous builds = 0
Setting up run ...
Memory usage per processor = 1.7156 Mbytes
mystep PotEng Xy Xz Yz Lx 
          25     -7.65625     0.089628            0            0        7.469 
          25     -7.65625     0.097097            0            0        7.469 

Pair  time (%) = 0.000831842 (94.6555)
Neigh time (%) = 0 (0)
Comm  time (%) = 2.59876e-05 (2.95714)
Outpt time (%) = 6.91414e-06 (0.786761)
Other time (%) = 1.40667e-05 (1.60065)

Nlocal:    500 ave 500 max 500 min
Histogram: 1 0 0 0 0 0 0 0 0 0
Nghost:    2180 ave 2180 max 2180 min
Histogram: 1 0 0 0 0 0 0 0 0 0
Neighs:    22896 ave 22896 max 22896 min
Histogram: 1 0 0 0 0 0 0 0 0 0

Total # of neighbors = 22896
Ave neighs/atom = 45.792
Neighbor list builds = 0
Dangerous builds = 0
WARNING: No fixes defined, atoms won't move (verlet.cpp:52)
Setting up run ...
Memory usage per processor = 1.7156 Mbytes
mystep PotEng Xy Xz Yz Lx 
          25   -7.6562265     0.097097            0            0        7.469 

Pair  time (%) = 0 (0)
Neigh time (%) = 0 (0)
Comm  time (%) = 0 (0)
Outpt time (%) = 0 (0)
Other time (%) = 9.53674e-07 (100)

Nlocal:    500 ave 500 max 500 min
Histogram: 1 0 0 0 0 0 0 0 0 0
Nghost:    2180 ave 2180 max 2180 min
Histogram: 1 0 0 0 0 0 0 0 0 0
Neighs:    22890 ave 22890 max 22890 min
Histogram: 1 0 0 0 0 0 0 0 0 0

Total # of neighbors = 22890
Ave neighs/atom = 45.78
Neighbor list builds = 0
Dangerous builds = 0
WARNING: Resetting reneighboring criteria during minimization (min.cpp:166)
Setting up minimization ...
Memory usage per processor = 2.43658 Mbytes
mystep PotEng Xy Xz Yz Lx 
          26   -7.6562265     0.097097            0            0        7.469 
          26   -7.6562446     0.097097            0            0        7.469 

Minimization stats:
  Stopping criterion = energy tolerance
  Energy initial, next-to-last, final = 
        -7.65622651745     -7.65624458234     -7.65624463611
  Force two-norm initial, final = 1.45995 0.145525
  Force max component initial, final = 0.148379 0.051755
  Final line search alpha, max atom move = 0.00195312 0.000101084
  Iterations, force evaluations = 30 287

Pair  time (%) = 0.23861 (95.5548)
Neigh time (%) = 0 (0)
Comm  time (%) = 0.00716424 (2.86902)
Outpt time (%) = 0 (0)
Other time (%) = 0.00393581 (1.57615)

Nlocal:    500 ave 500 max 500 min
Histogram: 1 0 0 0 0 0 0 0 0 0
Nghost:    2180 ave 2180 max 2180 min
Histogram: 1 0 0 0 0 0 0 0 0 0
Neighs:    22890 ave 22890 max 22890 min
Histogram: 1 0 0 0 0 0 0 0 0 0

Total # of neighbors = 22890
Ave neighs/atom = 45.78
Neighbor list builds = 0
Dangerous builds = 0
WARNING: No fixes defined, atoms won't move (verlet.cpp:52)
Setting up run ...
Memory usage per processor = 1.7156 Mbytes
mystep PotEng Xy Xz Yz Lx 
          26   -7.6562446     0.097097            0            0        7.469 

Pair  time (%) = 0 (0)
Neigh time (%) = 0 (0)
Comm  time (%) = 0 (0)
Outpt time (%) = 0 (0)
Other time (%) = 9.53674e-07 (100)

Nlocal:    500 ave 500 max 500 min
Histogram: 1 0 0 0 0 0 0 0 0 0
Nghost:    2180 ave 2180 max 2180 min
Histogram: 1 0 0 0 0 0 0 0 0 0
Neighs:    22886 ave 22886 max 22886 min
Histogram: 1 0 0 0 0 0 0 0 0 0

Total # of neighbors = 22886
Ave neighs/atom = 45.772
Neighbor list builds = 0
Dangerous builds = 0
Setting up run ...
Memory usage per processor = 1.7156 Mbytes
mystep PotEng Xy Xz Yz Lx 
          27   -7.6562446     0.097097            0            0        7.469 
          27   -7.6562446     0.104566            0            0        7.469 

Pair  time (%) = 0.000828028 (94.9686)
Neigh time (%) = 0 (0)
Comm  time (%) = 2.5034e-05 (2.87121)
Outpt time (%) = 5.96046e-06 (0.68362)
Other time (%) = 1.28746e-05 (1.47662)

Nlocal:    500 ave 500 max 500 min
Histogram: 1 0 0 0 0 0 0 0 0 0
Nghost:    2180 ave 2180 max 2180 min
Histogram: 1 0 0 0 0 0 0 0 0 0
Neighs:    22886 ave 22886 max 22886 min
Histogram: 1 0 0 0 0 0 0 0 0 0

Total # of neighbors = 22886
Ave neighs/atom = 45.772
Neighbor list builds = 0
Dangerous builds = 0
WARNING: No fixes defined, atoms won't move (verlet.cpp:52)
Setting up run ...
Memory usage per processor = 1.7156 Mbytes
mystep PotEng Xy Xz Yz Lx 
          27   -7.6562119     0.104566            0            0        7.469 

Pair  time (%) = 0 (0)
Neigh time (%) = 0 (0)
Comm  time (%) = 0 (0)
Outpt time (%) = 0 (0)
Other time (%) = 0 (0)

Nlocal:    500 ave 500 max 500 min
Histogram: 1 0 0 0 0 0 0 0 0 0
Nghost:    2180 ave 2180 max 2180 min
Histogram: 1 0 0 0 0 0 0 0 0 0
Neighs:    22890 ave 22890 max 22890 min
Histogram: 1 0 0 0 0 0 0 0 0 0

Total # of neighbors = 22890
Ave neighs/atom = 45.78
Neighbor list builds = 0
Dangerous builds = 0
WARNING: Resetting reneighboring criteria during minimization (min.cpp:166)
Setting up minimization ...
Memory usage per processor = 2.43658 Mbytes
mystep PotEng Xy Xz Yz Lx 
          28   -7.6562119     0.104566            0            0        7.469 
          28   -7.6562303     0.104566            0            0        7.469 

Minimization stats:
  Stopping criterion = energy tolerance
  Energy initial, next-to-last, final = 
        -7.65621190841      -7.6562302876     -7.65623033511
  Force two-norm initial, final = 1.4191 0.135744
  Force max component initial, final = 0.157278 0.0458218
  Final line search alpha, max atom move = 0.00195312 8.94956e-05
  Iterations, force evaluations = 25 235

Pair  time (%) = 0.195664 (95.5585)
Neigh time (%) = 0 (0)
Comm  time (%) = 0.0058651 (2.86441)
Outpt time (%) = 0 (0)
Other time (%) = 0.00322914 (1.57705)

Nlocal:    500 ave 500 max 500 min
Histogram: 1 0 0 0 0 0 0 0 0 0
Nghost:    2180 ave 2180 max 2180 min
Histogram: 1 0 0 0 0 0 0 0 0 0
Neighs:    22890 ave 22890 max 22890 min
Histogram: 1 0 0 0 0 0 0 0 0 0

Total # of neighbors = 22890
Ave neighs/atom = 45.78
Neighbor list builds = 0
Dangerous builds = 0
WARNING: No fixes defined, atoms won't move (verlet.cpp:52)
Setting up run ...
Memory usage per processor = 1.7156 Mbytes
mystep PotEng Xy Xz Yz Lx 
          28   -7.6562303     0.104566            0            0        7.469 

Pair  time (%) = 0 (0)
Neigh time (%) = 0 (0)
Comm  time (%) = 0 (0)
Outpt time (%) = 0 (0)
Other time (%) = 0 (0)

Nlocal:    500 ave 500 max 500 min
Histogram: 1 0 0 0 0 0 0 0 0 0
Nghost:    2183 ave 2183 max 2183 min
Histogram: 1 0 0 0 0 0 0 0 0 0
Neighs:    22886 ave 22886 max 22886 min
Histogram: 1 0 0 0 0 0 0 0 0 0

Total # of neighbors = 22886
Ave neighs/atom = 45.772
Neighbor list builds = 0
Dangerous builds = 0
Setting up run ...
Memory usage per processor = 1.7156 Mbytes
mystep PotEng Xy Xz Yz Lx 
          29   -7.6562303     0.104566            0            0        7.469 
          29   -7.6562303     0.112035            0            0        7.469 

Pair  time (%) = 0.000828028 (94.8389)
Neigh time (%) = 0 (0)
Comm  time (%) = 2.52724e-05 (2.89459)
Outpt time (%) = 5.96046e-06 (0.682687)
Other time (%) = 1.38283e-05 (1.58383)

Nlocal:    500 ave 500 max 500 min
Histogram: 1 0 0 0 0 0 0 0 0 0
Nghost:    2183 ave 2183 max 2183 min
Histogram: 1 0 0 0 0 0 0 0 0 0
Neighs:    22886 ave 22886 max 22886 min
Histogram: 1 0 0 0 0 0 0 0 0 0

Total # of neighbors = 22886
Ave neighs/atom = 45.772
Neighbor list builds = 0
Dangerous builds = 0
WARNING: No fixes defined, atoms won't move (verlet.cpp:52)
Setting up run ...
Memory usage per processor = 1.7156 Mbytes
mystep PotEng Xy Xz Yz Lx 
          29   -7.6561882     0.112035            0            0        7.469 

Pair  time (%) = 0 (0)
Neigh time (%) = 0 (0)
Comm  time (%) = 0 (0)
Outpt time (%) = 0 (0)
Other time (%) = 0 (0)

Nlocal:    500 ave 500 max 500 min
Histogram: 1 0 0 0 0 0 0 0 0 0
Nghost:    2183 ave 2183 max 2183 min
Histogram: 1 0 0 0 0 0 0 0 0 0
Neighs:    22890 ave 22890 max 22890 min
Histogram: 1 0 0 0 0 0 0 0 0 0

Total # of neighbors = 22890
Ave neighs/atom = 45.78
Neighbor list builds = 0
Dangerous builds = 0
WARNING: Resetting reneighboring criteria during minimization (min.cpp:166)
Setting up minimization ...
Memory usage per processor = 2.43658 Mbytes
mystep PotEng Xy Xz Yz Lx 
          30   -7.6561882     0.112035            0            0        7.469 
          30   -7.6562055     0.112035            0            0        7.469 

Minimization stats:
  Stopping criterion = energy tolerance
  Energy initial, next-to-last, final = 
         -7.6561881735     -7.65620537988     -7.65620545264
  Force two-norm initial, final = 1.41289 0.147839
  Force max component initial, final = 0.142981 0.0290804
  Final line search alpha, max atom move = 0.00390625 0.000113595
  Iterations, force evaluations = 33 315

Pair  time (%) = 0.262005 (95.5517)
Neigh time (%) = 0 (0)
Comm  time (%) = 0.0078671 (2.86908)
Outpt time (%) = 0 (0)
Other time (%) = 0.0043304 (1.57927)

Nlocal:    500 ave 500 max 500 min
Histogram: 1 0 0 0 0 0 0 0 0 0
Nghost:    2183 ave 2183 max 2183 min
Histogram: 1 0 0 0 0 0 0 0 0 0
Neighs:    22890 ave 22890 max 22890 min
Histogram: 1 0 0 0 0 0 0 0 0 0

Total # of neighbors = 22890
Ave neighs/atom = 45.78
Neighbor list builds = 0
Dangerous builds = 0
WARNING: No fixes defined, atoms won't move (verlet.cpp:52)
Setting up run ...
Memory usage per processor = 1.7156 Mbytes
mystep PotEng Xy Xz Yz Lx 
          30   -7.6562055     0.112035            0            0        7.469 

Pair  time (%) = 0 (0)
Neigh time (%) = 0 (0)
Comm  time (%) = 0 (0)
Outpt time (%) = 0 (0)
Other time (%) = 9.53674e-07 (100)

Nlocal:    500 ave 500 max 500 min
Histogram: 1 0 0 0 0 0 0 0 0 0
Nghost:    2183 ave 2183 max 2183 min
Histogram: 1 0 0 0 0 0 0 0 0 0
Neighs:    22891 ave 22891 max 22891 min
Histogram: 1 0 0 0 0 0 0 0 0 0

Total # of neighbors = 22891
Ave neighs/atom = 45.782
Neighbor list builds = 0
Dangerous builds = 0
Setting up run ...
Memory usage per processor = 1.7156 Mbytes
mystep PotEng Xy Xz Yz Lx 
          31   -7.6562055     0.112035            0            0        7.469 
          31   -7.6562055     0.119504            0            0        7.469 

Pair  time (%) = 0.000827074 (94.8332)
Neigh time (%) = 0 (0)
Comm  time (%) = 2.59876e-05 (2.97977)
Outpt time (%) = 5.00679e-06 (0.574084)
Other time (%) = 1.40667e-05 (1.6129)

Nlocal:    500 ave 500 max 500 min
Histogram: 1 0 0 0 0 0 0 0 0 0
Nghost:    2183 ave 2183 max 2183 min
Histogram: 1 0 0 0 0 0 0 0 0 0
Neighs:    22891 ave 22891 max 22891 min
Histogram: 1 0 0 0 0 0 0 0 0 0

Total # of neighbors = 22891
Ave neighs/atom = 45.782
Neighbor list builds = 0
Dangerous builds = 0
WARNING: No fixes defined, atoms won't move (verlet.cpp:52)
Setting up run ...
Memory usage per processor = 1.7156 Mbytes
mystep PotEng Xy Xz Yz Lx 
          31   -7.6561544     0.119504            0            0        7.469 

Pair  time (%) = 0 (0)
Neigh time (%) = 0 (0)
Comm  time (%) = 0 (0)
Outpt time (%) = 0 (0)
Other time (%) = 9.53674e-07 (100)

Nlocal:    500 ave 500 max 500 min
Histogram: 1 0 0 0 0 0 0 0 0 0
Nghost:    2183 ave 2183 max 2183 min
Histogram: 1 0 0 0 0 0 0 0 0 0
Neighs:    22890 ave 22890 max 22890 min
Histogram: 1 0 0 0 0 0 0 0 0 0

Total # of neighbors = 22890
Ave neighs/atom = 45.78
Neighbor list builds = 0
Dangerous builds = 0
WARNING: Resetting reneighboring criteria during minimization (min.cpp:166)
Setting up minimization ...
Memory usage per processor = 2.43658 Mbytes
mystep PotEng Xy Xz Yz Lx 
          32   -7.6561544     0.119504            0            0        7.469 
          32   -7.6561707     0.119504            0            0        7.469 

Minimization stats:
  Stopping criterion = energy tolerance
  Energy initial, next-to-last, final = 
        -7.65615437602     -7.65617064895     -7.65617072471
  Force two-norm initial, final = 1.39434 0.264756
  Force max component initial, final = 0.140556 0.0435977
  Final line search alpha, max atom move = 0.00195312 8.51517e-05
  Iterations, force evaluations = 27 256

Pair  time (%) = 0.212946 (95.5516)
Neigh time (%) = 0 (0)
Comm  time (%) = 0.00639677 (2.87031)
Outpt time (%) = 0 (0)
Other time (%) = 0.00351691 (1.57808)

Nlocal:    500 ave 500 max 500 min
Histogram: 1 0 0 0 0 0 0 0 0 0
Nghost:    2183 ave 2183 max 2183 min
Histogram: 1 0 0 0 0 0 0 0 0 0
Neighs:    22890 ave 22890 max 22890 min
Histogram: 1 0 0 0 0 0 0 0 0 0

Total # of neighbors = 22890
Ave neighs/atom = 45.78
Neighbor list builds = 0
Dangerous builds = 0
WARNING: No fixes defined, atoms won't move (verlet.cpp:52)
Setting up run ...
Memory usage per processor = 1.7156 Mbytes
mystep PotEng Xy Xz Yz Lx 
          32   -7.6561707     0.119504            0            0        7.469 

Pair  time (%) = 0 (0)
Neigh time (%) = 0 (0)
Comm  time (%) = 0 (0)
Outpt time (%) = 0 (0)
Other time (%) = 9.53674e-07 (100)

Nlocal:    500 ave 500 max 500 min
Histogram: 1 0 0 0 0 0 0 0 0 0
Nghost:    2183 ave 2183 max 2183 min
Histogram: 1 0 0 0 0 0 0 0 0 0
Neighs:    22892 ave 22892 max 22892 min
Histogram: 1 0 0 0 0 0 0 0 0 0

Total # of neighbors = 22892
Ave neighs/atom = 45.784
Neighbor list builds = 0
Dangerous builds = 0
Setting up run ...
Memory usage per processor = 1.7156 Mbytes
mystep PotEng Xy Xz Yz Lx 
          33   -7.6561707     0.119504            0            0        7.469 
          33   -7.6561707     0.126973            0            0        7.469 

Pair  time (%) = 0.000828028 (95.0465)
Neigh time (%) = 0 (0)
Comm  time (%) = 2.52724e-05 (2.90093)
Outpt time (%) = 5.00679e-06 (0.574713)
Other time (%) = 1.28746e-05 (1.47783)

Nlocal:    500 ave 500 max 500 min
Histogram: 1 0 0 0 0 0 0 0 0 0
Nghost:    2183 ave 2183 max 2183 min
Histogram: 1 0 0 0 0 0 0 0 0 0
Neighs:    22892 ave 22892 max 22892 min
Histogram: 1 0 0 0 0 0 0 0 0 0

Total # of neighbors = 22892
Ave neighs/atom = 45.784
Neighbor list builds = 0
Dangerous builds = 0
WARNING: No fixes defined, atoms won't move (verlet.cpp:52)
Setting up run ...
Memory usage per processor = 1.7156 Mbytes
mystep PotEng Xy Xz Yz Lx 
          33   -7.6561102     0.126973            0            0        7.469 

Pair  time (%) = 0 (0)
Neigh time (%) = 0 (0)
Comm  time (%) = 0 (0)
Outpt time (%) = 0 (0)
Other time (%) = 0 (0)

Nlocal:    500 ave 500 max 500 min
Histogram: 1 0 0 0 0 0 0 0 0 0
Nghost:    2183 ave 2183 max 2183 min
Histogram: 1 0 0 0 0 0 0 0 0 0
Neighs:    22889 ave 22889 max 22889 min
Histogram: 1 0 0 0 0 0 0 0 0 0

Total # of neighbors = 22889
Ave neighs/atom = 45.778
Neighbor list builds = 0
Dangerous builds = 0
WARNING: Resetting reneighboring criteria during minimization (min.cpp:166)
Setting up minimization ...
Memory usage per processor = 2.43658 Mbytes
mystep PotEng Xy Xz Yz Lx 
          34   -7.6561102     0.126973            0            0        7.469 
          34   -7.6561267     0.126973            0            0        7.469 

Minimization stats:
  Stopping criterion = energy tolerance
  Energy initial, next-to-last, final = 
        -7.65611022179      -7.6561266461     -7.65612670435
  Force two-norm initial, final = 1.39655 0.228955
  Force max component initial, final = 0.137268 0.050352
  Final line search alpha, max atom move = 0.0012501 6.2945e-05
  Iterations, force evaluations = 28 263

Pair  time (%) = 0.2187 (95.5595)
Neigh time (%) = 0 (0)
Comm  time (%) = 0.00654268 (2.85878)
Outpt time (%) = 0 (0)
Other time (%) = 0.00361991 (1.58169)

Nlocal:    500 ave 500 max 500 min
Histogram: 1 0 0 0 0 0 0 0 0 0
Nghost:    2183 ave 2183 max 2183 min
Histogram: 1 0 0 0 0 0 0 0 0 0
Neighs:    22889 ave 22889 max 22889 min
Histogram: 1 0 0 0 0 0 0 0 0 0

Total # of neighbors = 22889
Ave neighs/atom = 45.778
Neighbor list builds = 0
Dangerous builds = 0
WARNING: No fixes defined, atoms won't move (verlet.cpp:52)
Setting up run ...
Memory usage per processor = 1.7156 Mbytes
mystep PotEng Xy Xz Yz Lx 
          34   -7.6561267     0.126973            0            0        7.469 

Pair  time (%) = 0 (0)
Neigh time (%) = 0 (0)
Comm  time (%) = 0 (0)
Outpt time (%) = 0 (0)
Other time (%) = 0 (0)

Nlocal:    500 ave 500 max 500 min
Histogram: 1 0 0 0 0 0 0 0 0 0
Nghost:    2183 ave 2183 max 2183 min
Histogram: 1 0 0 0 0 0 0 0 0 0
Neighs:    22898 ave 22898 max 22898 min
Histogram: 1 0 0 0 0 0 0 0 0 0

Total # of neighbors = 22898
Ave neighs/atom = 45.796
Neighbor list builds = 0
Dangerous builds = 0
Setting up run ...
Memory usage per processor = 1.7156 Mbytes
mystep PotEng Xy Xz Yz Lx 
          35   -7.6561267     0.126973            0            0        7.469 
          35   -7.6561267     0.134442            0            0        7.469 

Pair  time (%) = 0.000828028 (94.8389)
Neigh time (%) = 0 (0)
Comm  time (%) = 2.52724e-05 (2.89459)
Outpt time (%) = 5.96046e-06 (0.682687)
Other time (%) = 1.38283e-05 (1.58383)

Nlocal:    500 ave 500 max 500 min
Histogram: 1 0 0 0 0 0 0 0 0 0
Nghost:    2183 ave 2183 max 2183 min
Histogram: 1 0 0 0 0 0 0 0 0 0
Neighs:    22898 ave 22898 max 22898 min
Histogram: 1 0 0 0 0 0 0 0 0 0

Total # of neighbors = 22898
Ave neighs/atom = 45.796
Neighbor list builds = 0
Dangerous builds = 0
WARNING: No fixes defined, atoms won't move (verlet.cpp:52)
Setting up run ...
Memory usage per processor = 1.7156 Mbytes
mystep PotEng Xy Xz Yz Lx 
          35   -7.6560553     0.134442            0            0        7.469 

Pair  time (%) = 0 (0)
Neigh time (%) = 0 (0)
Comm  time (%) = 0 (0)
Outpt time (%) = 0 (0)
Other time (%) = 9.53674e-07 (100)

Nlocal:    500 ave 500 max 500 min
Histogram: 1 0 0 0 0 0 0 0 0 0
Nghost:    2183 ave 2183 max 2183 min
Histogram: 1 0 0 0 0 0 0 0 0 0
Neighs:    22895 ave 22895 max 22895 min
Histogram: 1 0 0 0 0 0 0 0 0 0

Total # of neighbors = 22895
Ave neighs/atom = 45.79
Neighbor list builds = 0
Dangerous builds = 0
WARNING: Resetting reneighboring criteria during minimization (min.cpp:166)
Setting up minimization ...
Memory usage per processor = 2.43658 Mbytes
mystep PotEng Xy Xz Yz Lx 
          36   -7.6560553     0.134442            0            0        7.469 
          36   -7.6560723     0.134442            0            0        7.469 

Minimization stats:
  Stopping criterion = energy tolerance
  Energy initial, next-to-last, final = 
        -7.65605525184     -7.65607224653     -7.65607230922
  Force two-norm initial, final = 1.43961 0.113238
  Force max component initial, final = 0.155038 0.0211235
  Final line search alpha, max atom move = 0.00195312 4.12568e-05
  Iterations, force evaluations = 26 248

Pair  time (%) = 0.206575 (95.5452)
Neigh time (%) = 0 (0)
Comm  time (%) = 0.0062089 (2.87174)
Outpt time (%) = 0 (0)
Other time (%) = 0.00342274 (1.58308)

Nlocal:    500 ave 500 max 500 min
Histogram: 1 0 0 0 0 0 0 0 0 0
Nghost:    2183 ave 2183 max 2183 min
Histogram: 1 0 0 0 0 0 0 0 0 0
Neighs:    22895 ave 22895 max 22895 min
Histogram: 1 0 0 0 0 0 0 0 0 0

Total # of neighbors = 22895
Ave neighs/atom = 45.79
Neighbor list builds = 0
Dangerous builds = 0
WARNING: No fixes defined, atoms won't move (verlet.cpp:52)
Setting up run ...
Memory usage per processor = 1.7156 Mbytes
mystep PotEng Xy Xz Yz Lx 
          36   -7.6560723     0.134442            0            0        7.469 

Pair  time (%) = 0 (0)
Neigh time (%) = 0 (0)
Comm  time (%) = 0 (0)
Outpt time (%) = 0 (0)
Other time (%) = 0 (0)

Nlocal:    500 ave 500 max 500 min
Histogram: 1 0 0 0 0 0 0 0 0 0
Nghost:    2183 ave 2183 max 2183 min
Histogram: 1 0 0 0 0 0 0 0 0 0
Neighs:    22895 ave 22895 max 22895 min
Histogram: 1 0 0 0 0 0 0 0 0 0

Total # of neighbors = 22895
Ave neighs/atom = 45.79
Neighbor list builds = 0
Dangerous builds = 0
Setting up run ...
Memory usage per processor = 1.7156 Mbytes
mystep PotEng Xy Xz Yz Lx 
          37   -7.6560723     0.134442            0            0        7.469 
          37   -7.6560723     0.141911            0            0        7.469 

Pair  time (%) = 0.000833035 (94.5602)
Neigh time (%) = 0 (0)
Comm  time (%) = 2.69413e-05 (3.05819)
Outpt time (%) = 6.91414e-06 (0.784844)
Other time (%) = 1.40667e-05 (1.59675)

Nlocal:    500 ave 500 max 500 min
Histogram: 1 0 0 0 0 0 0 0 0 0
Nghost:    2183 ave 2183 max 2183 min
Histogram: 1 0 0 0 0 0 0 0 0 0
Neighs:    22895 ave 22895 max 22895 min
Histogram: 1 0 0 0 0 0 0 0 0 0

Total # of neighbors = 22895
Ave neighs/atom = 45.79
Neighbor list builds = 0
Dangerous builds = 0
WARNING: No fixes defined, atoms won't move (verlet.cpp:52)
Setting up run ...
Memory usage per processor = 1.7156 Mbytes
mystep PotEng Xy Xz Yz Lx 
          37   -7.6559919     0.141911            0            0        7.469 

Pair  time (%) = 0 (0)
Neigh time (%) = 0 (0)
Comm  time (%) = 0 (0)
Outpt time (%) = 0 (0)
Other time (%) = 0 (0)

Nlocal:    500 ave 500 max 500 min
Histogram: 1 0 0 0 0 0 0 0 0 0
Nghost:    2183 ave 2183 max 2183 min
Histogram: 1 0 0 0 0 0 0 0 0 0
Neighs:    22887 ave 22887 max 22887 min
Histogram: 1 0 0 0 0 0 0 0 0 0

Total # of neighbors = 22887
Ave neighs/atom = 45.774
Neighbor list builds = 0
Dangerous builds = 0
WARNING: Resetting reneighboring criteria during minimization (min.cpp:166)
Setting up minimization ...
Memory usage per processor = 2.43658 Mbytes
mystep PotEng Xy Xz Yz Lx 
          38   -7.6559919     0.141911            0            0        7.469 
          38   -7.6560078     0.141911            0            0        7.469 

Minimization stats:
  Stopping criterion = energy tolerance
  Energy initial, next-to-last, final = 
        -7.65599190755     -7.65600771064     -7.65600777101
  Force two-norm initial, final = 1.3975 0.114009
  Force max component initial, final = 0.144155 0.0172178
  Final line search alpha, max atom move = 0.000976562 1.68142e-05
  Iterations, force evaluations = 21 199

Pair  time (%) = 0.166172 (95.5488)
Neigh time (%) = 0 (0)
Comm  time (%) = 0.00501561 (2.88398)
Outpt time (%) = 0 (0)
Other time (%) = 0.0027256 (1.56722)

Nlocal:    500 ave 500 max 500 min
Histogram: 1 0 0 0 0 0 0 0 0 0
Nghost:    2183 ave 2183 max 2183 min
Histogram: 1 0 0 0 0 0 0 0 0 0
Neighs:    22887 ave 22887 max 22887 min
Histogram: 1 0 0 0 0 0 0 0 0 0

Total # of neighbors = 22887
Ave neighs/atom = 45.774
Neighbor list builds = 0
Dangerous builds = 0
WARNING: No fixes defined, atoms won't move (verlet.cpp:52)
Setting up run ...
Memory usage per processor = 1.7156 Mbytes
mystep PotEng Xy Xz Yz Lx 
          38   -7.6560078     0.141911            0            0        7.469 

Pair  time (%) = 0 (0)
Neigh time (%) = 0 (0)
Comm  time (%) = 0 (0)
Outpt time (%) = 0 (0)
Other time (%) = 0 (0)

Nlocal:    500 ave 500 max 500 min
Histogram: 1 0 0 0 0 0 0 0 0 0
Nghost:    2183 ave 2183 max 2183 min
Histogram: 1 0 0 0 0 0 0 0 0 0
Neighs:    22893 ave 22893 max 22893 min
Histogram: 1 0 0 0 0 0 0 0 0 0

Total # of neighbors = 22893
Ave neighs/atom = 45.786
Neighbor list builds = 0
Dangerous builds = 0
Setting up run ...
Memory usage per processor = 1.7156 Mbytes
mystep PotEng Xy Xz Yz Lx 
          39   -7.6560078     0.141911            0            0        7.469 
          39   -7.6560078      0.14938            0            0        7.469 

Pair  time (%) = 0.000829935 (94.7469)
Neigh time (%) = 0 (0)
Comm  time (%) = 2.59876e-05 (2.96679)
Outpt time (%) = 5.96046e-06 (0.680457)
Other time (%) = 1.40667e-05 (1.60588)

Nlocal:    500 ave 500 max 500 min
Histogram: 1 0 0 0 0 0 0 0 0 0
Nghost:    2183 ave 2183 max 2183 min
Histogram: 1 0 0 0 0 0 0 0 0 0
Neighs:    22893 ave 22893 max 22893 min
Histogram: 1 0 0 0 0 0 0 0 0 0

Total # of neighbors = 22893
Ave neighs/atom = 45.786
Neighbor list builds = 0
Dangerous builds = 0
WARNING: No fixes defined, atoms won't move (verlet.cpp:52)
Setting up run ...
Memory usage per processor = 1.7156 Mbytes
mystep PotEng Xy Xz Yz Lx 
          39   -7.6559179      0.14938            0            0        7.469 

Pair  time (%) = 0 (0)
Neigh time (%) = 0 (0)
Comm  time (%) = 0 (0)
Outpt time (%) = 0 (0)
Other time (%) = 0 (0)

Nlocal:    500 ave 500 max 500 min
Histogram: 1 0 0 0 0 0 0 0 0 0
Nghost:    2183 ave 2183 max 2183 min
Histogram: 1 0 0 0 0 0 0 0 0 0
Neighs:    22884 ave 22884 max 22884 min
Histogram: 1 0 0 0 0 0 0 0 0 0

Total # of neighbors = 22884
Ave neighs/atom = 45.768
Neighbor list builds = 0
Dangerous builds = 0
WARNING: Resetting reneighboring criteria during minimization (min.cpp:166)
Setting up minimization ...
Memory usage per processor = 2.43658 Mbytes
mystep PotEng Xy Xz Yz Lx 
          40   -7.6559179      0.14938            0            0        7.469 
          40   -7.6559346      0.14938            0            0        7.469 

Minimization stats:
  Stopping criterion = energy tolerance
  Energy initial, next-to-last, final = 
        -7.65591785137     -7.65593451038     -7.65593456939
  Force two-norm initial, final = 1.39183 0.191065
  Force max component initial, final = 0.142409 0.0306213
  Final line search alpha, max atom move = 0.00195312 5.98073e-05
  Iterations, force evaluations = 30 284

Pair  time (%) = 0.236447 (94.0923)
Neigh time (%) = 0.0035522 (1.41357)
Comm  time (%) = 0.00736737 (2.93179)
Outpt time (%) = 0 (0)
Other time (%) = 0.00392604 (1.56234)

Nlocal:    500 ave 500 max 500 min
Histogram: 1 0 0 0 0 0 0 0 0 0
Nghost:    2187 ave 2187 max 2187 min
Histogram: 1 0 0 0 0 0 0 0 0 0
Neighs:    22882 ave 22882 max 22882 min
Histogram: 1 0 0 0 0 0 0 0 0 0

Total # of neighbors = 22882
Ave neighs/atom = 45.764
Neighbor list builds = 2
Dangerous builds = 0
WARNING: No fixes defined, atoms won't move (verlet.cpp:52)
Setting up run ...
Memory usage per processor = 1.7156 Mbytes
mystep PotEng Xy Xz Yz Lx 
          40   -7.6559346      0.14938            0            0        7.469 

Pair  time (%) = 0 (0)
Neigh time (%) = 0 (0)
Comm  time (%) = 0 (0)
Outpt time (%) = 0 (0)
Other time (%) = 0 (0)

Nlocal:    500 ave 500 max 500 min
Histogram: 1 0 0 0 0 0 0 0 0 0
Nghost:    2187 ave 2187 max 2187 min
Histogram: 1 0 0 0 0 0 0 0 0 0
Neighs:    22886 ave 22886 max 22886 min
Histogram: 1 0 0 0 0 0 0 0 0 0

Total # of neighbors = 22886
Ave neighs/atom = 45.772
Neighbor list builds = 0
Dangerous builds = 0
Setting up run ...
Memory usage per processor = 1.7156 Mbytes
mystep PotEng Xy Xz Yz Lx 
          41   -7.6559346      0.14938            0            0        7.469 
          41   -7.6559346     0.156849            0            0        7.469 

Pair  time (%) = 0.000830889 (94.7526)
Neigh time (%) = 0 (0)
Comm  time (%) = 2.59876e-05 (2.96357)
Outpt time (%) = 6.91414e-06 (0.788472)
Other time (%) = 1.3113e-05 (1.49538)

Nlocal:    500 ave 500 max 500 min
Histogram: 1 0 0 0 0 0 0 0 0 0
Nghost:    2187 ave 2187 max 2187 min
Histogram: 1 0 0 0 0 0 0 0 0 0
Neighs:    22886 ave 22886 max 22886 min
Histogram: 1 0 0 0 0 0 0 0 0 0

Total # of neighbors = 22886
Ave neighs/atom = 45.772
Neighbor list builds = 0
Dangerous builds = 0
WARNING: No fixes defined, atoms won't move (verlet.cpp:52)
Setting up run ...
Memory usage per processor = 1.7156 Mbytes
mystep PotEng Xy Xz Yz Lx 
          41   -7.6558339     0.156849            0            0        7.469 

Pair  time (%) = 0 (0)
Neigh time (%) = 0 (0)
Comm  time (%) = 0 (0)
Outpt time (%) = 0 (0)
Other time (%) = 0 (0)

Nlocal:    500 ave 500 max 500 min
Histogram: 1 0 0 0 0 0 0 0 0 0
Nghost:    2187 ave 2187 max 2187 min
Histogram: 1 0 0 0 0 0 0 0 0 0
Neighs:    22884 ave 22884 max 22884 min
Histogram: 1 0 0 0 0 0 0 0 0 0

Total # of neighbors = 22884
Ave neighs/atom = 45.768
Neighbor list builds = 0
Dangerous builds = 0
WARNING: Resetting reneighboring criteria during minimization (min.cpp:166)
Setting up minimization ...
Memory usage per processor = 2.43658 Mbytes
mystep PotEng Xy Xz Yz Lx 
          42   -7.6558339     0.156849            0            0        7.469 
          42   -7.6558572     0.156849            0            0        7.469 

Minimization stats:
  Stopping criterion = energy tolerance
  Energy initial, next-to-last, final = 
        -7.65583394762     -7.65585709531     -7.65585716955
  Force two-norm initial, final = 1.41772 0.187134
  Force max component initial, final = 0.150581 0.0336238
  Final line search alpha, max atom move = 0.00195312 6.56715e-05
  Iterations, force evaluations = 55 517

Pair  time (%) = 0.430327 (95.1134)
Neigh time (%) = 0.00178003 (0.393433)
Comm  time (%) = 0.0131919 (2.91576)
Outpt time (%) = 0 (0)
Other time (%) = 0.00713682 (1.57742)

Nlocal:    500 ave 500 max 500 min
Histogram: 1 0 0 0 0 0 0 0 0 0
Nghost:    2178 ave 2178 max 2178 min
Histogram: 1 0 0 0 0 0 0 0 0 0
Neighs:    22881 ave 22881 max 22881 min
Histogram: 1 0 0 0 0 0 0 0 0 0

Total # of neighbors = 22881
Ave neighs/atom = 45.762
Neighbor list builds = 1
Dangerous builds = 0
WARNING: No fixes defined, atoms won't move (verlet.cpp:52)
Setting up run ...
Memory usage per processor = 1.7156 Mbytes
mystep PotEng Xy Xz Yz Lx 
          42   -7.6558572     0.156849            0            0        7.469 

Pair  time (%) = 0 (0)
Neigh time (%) = 0 (0)
Comm  time (%) = 0 (0)
Outpt time (%) = 0 (0)
Other time (%) = 0 (0)

Nlocal:    500 ave 500 max 500 min
Histogram: 1 0 0 0 0 0 0 0 0 0
Nghost:    2187 ave 2187 max 2187 min
Histogram: 1 0 0 0 0 0 0 0 0 0
Neighs:    22889 ave 22889 max 22889 min
Histogram: 1 0 0 0 0 0 0 0 0 0

Total # of neighbors = 22889
Ave neighs/atom = 45.778
Neighbor list builds = 0
Dangerous builds = 0
Setting up run ...
Memory usage per processor = 1.7156 Mbytes
mystep PotEng Xy Xz Yz Lx 
          43   -7.6558572     0.156849            0            0        7.469 
          43   -7.6558572     0.164318            0            0        7.469 

Pair  time (%) = 0.000835896 (94.7568)
Neigh time (%) = 0 (0)
Comm  time (%) = 2.5034e-05 (2.83784)
Outpt time (%) = 6.19888e-06 (0.702703)
Other time (%) = 1.50204e-05 (1.7027)

Nlocal:    500 ave 500 max 500 min
Histogram: 1 0 0 0 0 0 0 0 0 0
Nghost:    2187 ave 2187 max 2187 min
Histogram: 1 0 0 0 0 0 0 0 0 0
Neighs:    22889 ave 22889 max 22889 min
Histogram: 1 0 0 0 0 0 0 0 0 0

Total # of neighbors = 22889
Ave neighs/atom = 45.778
Neighbor list builds = 0
Dangerous builds = 0
WARNING: No fixes defined, atoms won't move (verlet.cpp:52)
Setting up run ...
Memory usage per processor = 1.7156 Mbytes
mystep PotEng Xy Xz Yz Lx 
          43   -7.6557488     0.164318            0            0        7.469 

Pair  time (%) = 0 (0)
Neigh time (%) = 0 (0)
Comm  time (%) = 0 (0)
Outpt time (%) = 0 (0)
Other time (%) = 0 (0)

Nlocal:    500 ave 500 max 500 min
Histogram: 1 0 0 0 0 0 0 0 0 0
Nghost:    2187 ave 2187 max 2187 min
Histogram: 1 0 0 0 0 0 0 0 0 0
Neighs:    22887 ave 22887 max 22887 min
Histogram: 1 0 0 0 0 0 0 0 0 0

Total # of neighbors = 22887
Ave neighs/atom = 45.774
Neighbor list builds = 0
Dangerous builds = 0
WARNING: Resetting reneighboring criteria during minimization (min.cpp:166)
Setting up minimization ...
Memory usage per processor = 2.43658 Mbytes
mystep PotEng Xy Xz Yz Lx 
          44   -7.6557488     0.164318            0            0        7.469 
          44   -7.6557638     0.164318            0            0        7.469 

Minimization stats:
  Stopping criterion = energy tolerance
  Energy initial, next-to-last, final = 
        -7.65574884255     -7.65576371028     -7.65576377953
  Force two-norm initial, final = 1.40721 0.13659
  Force max component initial, final = 0.135131 0.0245025
  Final line search alpha, max atom move = 0.00195312 4.78564e-05
  Iterations, force evaluations = 25 239

Pair  time (%) = 0.198937 (95.5158)
Neigh time (%) = 0 (0)
Comm  time (%) = 0.00606275 (2.91091)
Outpt time (%) = 0 (0)
Other time (%) = 0.00327682 (1.5733)

Nlocal:    500 ave 500 max 500 min
Histogram: 1 0 0 0 0 0 0 0 0 0
Nghost:    2187 ave 2187 max 2187 min
Histogram: 1 0 0 0 0 0 0 0 0 0
Neighs:    22887 ave 22887 max 22887 min
Histogram: 1 0 0 0 0 0 0 0 0 0

Total # of neighbors = 22887
Ave neighs/atom = 45.774
Neighbor list builds = 0
Dangerous builds = 0
WARNING: No fixes defined, atoms won't move (verlet.cpp:52)
Setting up run ...
Memory usage per processor = 1.7156 Mbytes
mystep PotEng Xy Xz Yz Lx 
          44   -7.6557638     0.164318            0            0        7.469 

Pair  time (%) = 0 (0)
Neigh time (%) = 0 (0)
Comm  time (%) = 0 (0)
Outpt time (%) = 0 (0)
Other time (%) = 0 (0)

Nlocal:    500 ave 500 max 500 min
Histogram: 1 0 0 0 0 0 0 0 0 0
Nghost:    2187 ave 2187 max 2187 min
Histogram: 1 0 0 0 0 0 0 0 0 0
Neighs:    22881 ave 22881 max 22881 min
Histogram: 1 0 0 0 0 0 0 0 0 0

Total # of neighbors = 22881
Ave neighs/atom = 45.762
Neighbor list builds = 0
Dangerous builds = 0
Setting up run ...
Memory usage per processor = 1.7156 Mbytes
mystep PotEng Xy Xz Yz Lx 
          45   -7.6557638     0.164318            0            0        7.469 
          45   -7.6557638     0.171787            0            0        7.469 

Pair  time (%) = 0.00082612 (94.7239)
Neigh time (%) = 0 (0)
Comm  time (%) = 2.69413e-05 (3.08912)
Outpt time (%) = 6.19888e-06 (0.710771)
Other time (%) = 1.28746e-05 (1.47622)

Nlocal:    500 ave 500 max 500 min
Histogram: 1 0 0 0 0 0 0 0 0 0
Nghost:    2187 ave 2187 max 2187 min
Histogram: 1 0 0 0 0 0 0 0 0 0
Neighs:    22881 ave 22881 max 22881 min
Histogram: 1 0 0 0 0 0 0 0 0 0

Total # of neighbors = 22881
Ave neighs/atom = 45.762
Neighbor list builds = 0
Dangerous builds = 0
WARNING: No fixes defined, atoms won't move (verlet.cpp:52)
Setting up run ...
Memory usage per processor = 1.7156 Mbytes
mystep PotEng Xy Xz Yz Lx 
          45   -7.6556441     0.171787            0            0        7.469 

Pair  time (%) = 0 (0)
Neigh time (%) = 0 (0)
Comm  time (%) = 0 (0)
Outpt time (%) = 0 (0)
Other time (%) = 0 (0)

Nlocal:    500 ave 500 max 500 min
Histogram: 1 0 0 0 0 0 0 0 0 0
Nghost:    2187 ave 2187 max 2187 min
Histogram: 1 0 0 0 0 0 0 0 0 0
Neighs:    22879 ave 22879 max 22879 min
Histogram: 1 0 0 0 0 0 0 0 0 0

Total # of neighbors = 22879
Ave neighs/atom = 45.758
Neighbor list builds = 0
Dangerous builds = 0
WARNING: Resetting reneighboring criteria during minimization (min.cpp:166)
Setting up minimization ...
Memory usage per processor = 2.43658 Mbytes
mystep PotEng Xy Xz Yz Lx 
          46   -7.6556441     0.171787            0            0        7.469 
          46    -7.655666     0.171787            0            0        7.469 

Minimization stats:
  Stopping criterion = energy tolerance
  Energy initial, next-to-last, final = 
        -7.65564406632     -7.65566589402     -7.65566595336
  Force two-norm initial, final = 1.41212 0.196023
  Force max component initial, final = 0.148385 0.0227265
  Final line search alpha, max atom move = 0.00188152 4.27603e-05
  Iterations, force evaluations = 53 498

Pair  time (%) = 0.413725 (95.1069)
Neigh time (%) = 0.00177598 (0.408261)
Comm  time (%) = 0.0126586 (2.90995)
Outpt time (%) = 0 (0)
Other time (%) = 0.00685096 (1.57489)

Nlocal:    500 ave 500 max 500 min
Histogram: 1 0 0 0 0 0 0 0 0 0
Nghost:    2196 ave 2196 max 2196 min
Histogram: 1 0 0 0 0 0 0 0 0 0
Neighs:    22876 ave 22876 max 22876 min
Histogram: 1 0 0 0 0 0 0 0 0 0

Total # of neighbors = 22876
Ave neighs/atom = 45.752
Neighbor list builds = 1
Dangerous builds = 0
WARNING: No fixes defined, atoms won't move (verlet.cpp:52)
Setting up run ...
Memory usage per processor = 1.7156 Mbytes
mystep PotEng Xy Xz Yz Lx 
          46    -7.655666     0.171787            0            0        7.469 

Pair  time (%) = 0 (0)
Neigh time (%) = 0 (0)
Comm  time (%) = 0 (0)
Outpt time (%) = 0 (0)
Other time (%) = 0 (0)

Nlocal:    500 ave 500 max 500 min
Histogram: 1 0 0 0 0 0 0 0 0 0
Nghost:    2190 ave 2190 max 2190 min
Histogram: 1 0 0 0 0 0 0 0 0 0
Neighs:    22883 ave 22883 max 22883 min
Histogram: 1 0 0 0 0 0 0 0 0 0

Total # of neighbors = 22883
Ave neighs/atom = 45.766
Neighbor list builds = 0
Dangerous builds = 0
Setting up run ...
Memory usage per processor = 1.7156 Mbytes
mystep PotEng Xy Xz Yz Lx 
          47    -7.655666     0.171787            0            0        7.469 
          47    -7.655666     0.179256            0            0        7.469 

Pair  time (%) = 0.000832081 (94.8627)
Neigh time (%) = 0 (0)
Comm  time (%) = 2.52724e-05 (2.88122)
Outpt time (%) = 6.19888e-06 (0.706714)
Other time (%) = 1.35899e-05 (1.54933)

Nlocal:    500 ave 500 max 500 min
Histogram: 1 0 0 0 0 0 0 0 0 0
Nghost:    2190 ave 2190 max 2190 min
Histogram: 1 0 0 0 0 0 0 0 0 0
Neighs:    22883 ave 22883 max 22883 min
Histogram: 1 0 0 0 0 0 0 0 0 0

Total # of neighbors = 22883
Ave neighs/atom = 45.766
Neighbor list builds = 0
Dangerous builds = 0
WARNING: No fixes defined, atoms won't move (verlet.cpp:52)
Setting up run ...
Memory usage per processor = 1.7156 Mbytes
mystep PotEng Xy Xz Yz Lx 
          47   -7.6555391     0.179256            0            0        7.469 

Pair  time (%) = 0 (0)
Neigh time (%) = 0 (0)
Comm  time (%) = 0 (0)
Outpt time (%) = 0 (0)
Other time (%) = 0 (0)

Nlocal:    500 ave 500 max 500 min
Histogram: 1 0 0 0 0 0 0 0 0 0
Nghost:    2190 ave 2190 max 2190 min
Histogram: 1 0 0 0 0 0 0 0 0 0
Neighs:    22881 ave 22881 max 22881 min
Histogram: 1 0 0 0 0 0 0 0 0 0

Total # of neighbors = 22881
Ave neighs/atom = 45.762
Neighbor list builds = 0
Dangerous builds = 0
WARNING: Resetting reneighboring criteria during minimization (min.cpp:166)
Setting up minimization ...
Memory usage per processor = 2.43658 Mbytes
mystep PotEng Xy Xz Yz Lx 
[...]
Setting up run ...
Memory usage per processor = 1.7156 Mbytes
mystep PotEng Xy Xz Yz Lx 
         468   -7.6554582    -0.044814            0            0        7.469 

Pair  time (%) = 0 (0)
Neigh time (%) = 0 (0)
Comm  time (%) = 0 (0)
Outpt time (%) = 0 (0)
Other time (%) = 0 (0)

Nlocal:    500 ave 500 max 500 min
Histogram: 1 0 0 0 0 0 0 0 0 0
Nghost:    2184 ave 2184 max 2184 min
Histogram: 1 0 0 0 0 0 0 0 0 0
Neighs:    22900 ave 22900 max 22900 min
Histogram: 1 0 0 0 0 0 0 0 0 0

Total # of neighbors = 22900
Ave neighs/atom = 45.8
Neighbor list builds = 0
Dangerous builds = 0
Setting up run ...
Memory usage per processor = 1.7156 Mbytes
mystep PotEng Xy Xz Yz Lx 
         469   -7.6554582    -0.044814            0            0        7.469 
         469   -7.6554582    -0.037345            0            0        7.469 

Pair  time (%) = 0.000831127 (94.883)
Neigh time (%) = 0 (0)
Comm  time (%) = 2.59876e-05 (2.96679)
Outpt time (%) = 5.00679e-06 (0.571584)
Other time (%) = 1.38283e-05 (1.57866)

Nlocal:    500 ave 500 max 500 min
Histogram: 1 0 0 0 0 0 0 0 0 0
Nghost:    2184 ave 2184 max 2184 min
Histogram: 1 0 0 0 0 0 0 0 0 0
Neighs:    22900 ave 22900 max 22900 min
Histogram: 1 0 0 0 0 0 0 0 0 0

Total # of neighbors = 22900
Ave neighs/atom = 45.8
Neighbor list builds = 0
Dangerous builds = 0
WARNING: No fixes defined, atoms won't move (verlet.cpp:52)
Setting up run ...
Memory usage per processor = 1.7156 Mbytes
mystep PotEng Xy Xz Yz Lx 
         469   -7.6555067    -0.037345            0            0        7.469 

Pair  time (%) = 0 (0)
Neigh time (%) = 0 (0)
Comm  time (%) = 0 (0)
Outpt time (%) = 0 (0)
Other time (%) = 0 (0)

Nlocal:    500 ave 500 max 500 min
Histogram: 1 0 0 0 0 0 0 0 0 0
Nghost:    2184 ave 2184 max 2184 min
Histogram: 1 0 0 0 0 0 0 0 0 0
Neighs:    22896 ave 22896 max 22896 min
Histogram: 1 0 0 0 0 0 0 0 0 0

Total # of neighbors = 22896
Ave neighs/atom = 45.792
Neighbor list builds = 0
Dangerous builds = 0
WARNING: Resetting reneighboring criteria during minimization (min.cpp:166)
Setting up minimization ...
Memory usage per processor = 2.43658 Mbytes
mystep PotEng Xy Xz Yz Lx 
         470   -7.6555067    -0.037345            0            0        7.469 
         470   -7.6555311    -0.037345            0            0        7.469 

Minimization stats:
  Stopping criterion = energy tolerance
  Energy initial, next-to-last, final = 
        -7.65550672321     -7.65553105421     -7.65553111096
  Force two-norm initial, final = 1.42711 0.129245
  Force max component initial, final = 0.174405 0.0225767
  Final line search alpha, max atom move = 0.000976562 2.20476e-05
  Iterations, force evaluations = 36 339

Pair  time (%) = 0.282578 (95.4013)
Neigh time (%) = 0 (0)
Comm  time (%) = 0.00887609 (2.99666)
Outpt time (%) = 0 (0)
Other time (%) = 0.00474524 (1.60205)

Nlocal:    500 ave 500 max 500 min
Histogram: 1 0 0 0 0 0 0 0 0 0
Nghost:    2184 ave 2184 max 2184 min
Histogram: 1 0 0 0 0 0 0 0 0 0
Neighs:    22896 ave 22896 max 22896 min
Histogram: 1 0 0 0 0 0 0 0 0 0

Total # of neighbors = 22896
Ave neighs/atom = 45.792
Neighbor list builds = 0
Dangerous builds = 0
WARNING: No fixes defined, atoms won't move (verlet.cpp:52)
Setting up run ...
Memory usage per processor = 1.7156 Mbytes
mystep PotEng Xy Xz Yz Lx 
         470   -7.6555311    -0.037345            0            0        7.469 

Pair  time (%) = 0 (0)
Neigh time (%) = 0 (0)
Comm  time (%) = 0 (0)
Outpt time (%) = 0 (0)
Other time (%) = 0 (0)

Nlocal:    500 ave 500 max 500 min
Histogram: 1 0 0 0 0 0 0 0 0 0
Nghost:    2184 ave 2184 max 2184 min
Histogram: 1 0 0 0 0 0 0 0 0 0
Neighs:    22906 ave 22906 max 22906 min
Histogram: 1 0 0 0 0 0 0 0 0 0

Total # of neighbors = 22906
Ave neighs/atom = 45.812
Neighbor list builds = 0
Dangerous builds = 0
Setting up run ...
Memory usage per processor = 1.7156 Mbytes
mystep PotEng Xy Xz Yz Lx 
         471   -7.6555311    -0.037345            0            0        7.469 
         471   -7.6555311    -0.029876            0            0        7.469 

Pair  time (%) = 0.000830173 (94.21)
Neigh time (%) = 0 (0)
Comm  time (%) = 3.19481e-05 (3.62554)
Outpt time (%) = 7.15256e-06 (0.811688)
Other time (%) = 1.19209e-05 (1.35281)

Nlocal:    500 ave 500 max 500 min
Histogram: 1 0 0 0 0 0 0 0 0 0
Nghost:    2184 ave 2184 max 2184 min
Histogram: 1 0 0 0 0 0 0 0 0 0
Neighs:    22906 ave 22906 max 22906 min
Histogram: 1 0 0 0 0 0 0 0 0 0

Total # of neighbors = 22906
Ave neighs/atom = 45.812
Neighbor list builds = 0
Dangerous builds = 0
WARNING: No fixes defined, atoms won't move (verlet.cpp:52)
Setting up run ...
Memory usage per processor = 1.7156 Mbytes
mystep PotEng Xy Xz Yz Lx 
         471   -7.6555732    -0.029876            0            0        7.469 

Pair  time (%) = 0 (0)
Neigh time (%) = 0 (0)
Comm  time (%) = 0 (0)
Outpt time (%) = 0 (0)
Other time (%) = 0 (0)

Nlocal:    500 ave 500 max 500 min
Histogram: 1 0 0 0 0 0 0 0 0 0
Nghost:    2184 ave 2184 max 2184 min
Histogram: 1 0 0 0 0 0 0 0 0 0
Neighs:    22902 ave 22902 max 22902 min
Histogram: 1 0 0 0 0 0 0 0 0 0

Total # of neighbors = 22902
Ave neighs/atom = 45.804
Neighbor list builds = 0
Dangerous builds = 0
WARNING: Resetting reneighboring criteria during minimization (min.cpp:166)
Setting up minimization ...
Memory usage per processor = 2.43658 Mbytes
mystep PotEng Xy Xz Yz Lx 
         472   -7.6555732    -0.029876            0            0        7.469 
         472   -7.6559044    -0.029876            0            0        7.469 

Minimization stats:
  Stopping criterion = energy tolerance
  Energy initial, next-to-last, final = 
        -7.65557321858     -7.65590439264     -7.65590444602
  Force two-norm initial, final = 1.4168 0.146207
  Force max component initial, final = 0.172219 0.0404281
  Final line search alpha, max atom move = 0.00195312 7.89612e-05
  Iterations, force evaluations = 222 1878

Pair  time (%) = 1.56432 (94.2466)
Neigh time (%) = 0.0194316 (1.17071)
Comm  time (%) = 0.0495563 (2.98565)
Outpt time (%) = 0 (0)
Other time (%) = 0.0265086 (1.59708)

Nlocal:    500 ave 500 max 500 min
Histogram: 1 0 0 0 0 0 0 0 0 0
Nghost:    2192 ave 2192 max 2192 min
Histogram: 1 0 0 0 0 0 0 0 0 0
Neighs:    22938 ave 22938 max 22938 min
Histogram: 1 0 0 0 0 0 0 0 0 0

Total # of neighbors = 22938
Ave neighs/atom = 45.876
Neighbor list builds = 11
Dangerous builds = 0
WARNING: No fixes defined, atoms won't move (verlet.cpp:52)
Setting up run ...
Memory usage per processor = 1.7156 Mbytes
mystep PotEng Xy Xz Yz Lx 
         472   -7.6559044    -0.029876            0            0        7.469 

Pair  time (%) = 0 (0)
Neigh time (%) = 0 (0)
Comm  time (%) = 0 (0)
Outpt time (%) = 0 (0)
Other time (%) = 9.53674e-07 (100)

Nlocal:    500 ave 500 max 500 min
Histogram: 1 0 0 0 0 0 0 0 0 0
Nghost:    2172 ave 2172 max 2172 min
Histogram: 1 0 0 0 0 0 0 0 0 0
Neighs:    22911 ave 22911 max 22911 min
Histogram: 1 0 0 0 0 0 0 0 0 0

Total # of neighbors = 22911
Ave neighs/atom = 45.822
Neighbor list builds = 0
Dangerous builds = 0
Setting up run ...
Memory usage per processor = 1.7156 Mbytes
mystep PotEng Xy Xz Yz Lx 
         473   -7.6559044    -0.029876            0            0        7.469 
         473   -7.6559044    -0.022407            0            0        7.469 

Pair  time (%) = 0.000829935 (94.7469)
Neigh time (%) = 0 (0)
Comm  time (%) = 2.59876e-05 (2.96679)
Outpt time (%) = 5.96046e-06 (0.680457)
Other time (%) = 1.40667e-05 (1.60588)

Nlocal:    500 ave 500 max 500 min
Histogram: 1 0 0 0 0 0 0 0 0 0
Nghost:    2172 ave 2172 max 2172 min
Histogram: 1 0 0 0 0 0 0 0 0 0
Neighs:    22911 ave 22911 max 22911 min
Histogram: 1 0 0 0 0 0 0 0 0 0

Total # of neighbors = 22911
Ave neighs/atom = 45.822
Neighbor list builds = 0
Dangerous builds = 0
WARNING: No fixes defined, atoms won't move (verlet.cpp:52)
Setting up run ...
Memory usage per processor = 1.7156 Mbytes
mystep PotEng Xy Xz Yz Lx 
         473   -7.6559633    -0.022407            0            0        7.469 

Pair  time (%) = 0 (0)
Neigh time (%) = 0 (0)
Comm  time (%) = 0 (0)
Outpt time (%) = 0 (0)
Other time (%) = 0 (0)

Nlocal:    500 ave 500 max 500 min
Histogram: 1 0 0 0 0 0 0 0 0 0
Nghost:    2172 ave 2172 max 2172 min
Histogram: 1 0 0 0 0 0 0 0 0 0
Neighs:    22910 ave 22910 max 22910 min
Histogram: 1 0 0 0 0 0 0 0 0 0

Total # of neighbors = 22910
Ave neighs/atom = 45.82
Neighbor list builds = 0
Dangerous builds = 0
WARNING: Resetting reneighboring criteria during minimization (min.cpp:166)
Setting up minimization ...
Memory usage per processor = 2.43658 Mbytes
mystep PotEng Xy Xz Yz Lx 
         474   -7.6559633    -0.022407            0            0        7.469 
         474   -7.6559749    -0.022407            0            0        7.469 

Minimization stats:
  Stopping criterion = energy tolerance
  Energy initial, next-to-last, final = 
        -7.65596334857      -7.6559748354     -7.65597489396
  Force two-norm initial, final = 1.42076 0.117694
  Force max component initial, final = 0.150631 0.0255395
  Final line search alpha, max atom move = 0.00195312 4.98818e-05
  Iterations, force evaluations = 17 165

Pair  time (%) = 0.137922 (93.0884)
Neigh time (%) = 0.00350666 (2.36677)
Comm  time (%) = 0.0044508 (3.00401)
Outpt time (%) = 0 (0)
Other time (%) = 0.00228286 (1.54078)

Nlocal:    500 ave 500 max 500 min
Histogram: 1 0 0 0 0 0 0 0 0 0
Nghost:    2172 ave 2172 max 2172 min
Histogram: 1 0 0 0 0 0 0 0 0 0
Neighs:    22911 ave 22911 max 22911 min
Histogram: 1 0 0 0 0 0 0 0 0 0

Total # of neighbors = 22911
Ave neighs/atom = 45.822
Neighbor list builds = 2
Dangerous builds = 0
WARNING: No fixes defined, atoms won't move (verlet.cpp:52)
Setting up run ...
Memory usage per processor = 1.7156 Mbytes
mystep PotEng Xy Xz Yz Lx 
         474   -7.6559749    -0.022407            0            0        7.469 

Pair  time (%) = 0 (0)
Neigh time (%) = 0 (0)
Comm  time (%) = 0 (0)
Outpt time (%) = 0 (0)
Other time (%) = 9.53674e-07 (100)

Nlocal:    500 ave 500 max 500 min
Histogram: 1 0 0 0 0 0 0 0 0 0
Nghost:    2172 ave 2172 max 2172 min
Histogram: 1 0 0 0 0 0 0 0 0 0
Neighs:    22913 ave 22913 max 22913 min
Histogram: 1 0 0 0 0 0 0 0 0 0

Total # of neighbors = 22913
Ave neighs/atom = 45.826
Neighbor list builds = 0
Dangerous builds = 0
Setting up run ...
Memory usage per processor = 1.7156 Mbytes
mystep PotEng Xy Xz Yz Lx 
         475   -7.6559749    -0.022407            0            0        7.469 
         475   -7.6559749    -0.014938            0            0        7.469 

Pair  time (%) = 0.000828981 (94.8445)
Neigh time (%) = 0 (0)
Comm  time (%) = 2.59876e-05 (2.97327)
Outpt time (%) = 5.96046e-06 (0.681942)
Other time (%) = 1.3113e-05 (1.50027)

Nlocal:    500 ave 500 max 500 min
Histogram: 1 0 0 0 0 0 0 0 0 0
Nghost:    2172 ave 2172 max 2172 min
Histogram: 1 0 0 0 0 0 0 0 0 0
Neighs:    22913 ave 22913 max 22913 min
Histogram: 1 0 0 0 0 0 0 0 0 0

Total # of neighbors = 22913
Ave neighs/atom = 45.826
Neighbor list builds = 0
Dangerous builds = 0
WARNING: No fixes defined, atoms won't move (verlet.cpp:52)
Setting up run ...
Memory usage per processor = 1.7156 Mbytes
mystep PotEng Xy Xz Yz Lx 
         475   -7.6560191    -0.014938            0            0        7.469 

Pair  time (%) = 0 (0)
Neigh time (%) = 0 (0)
Comm  time (%) = 0 (0)
Outpt time (%) = 0 (0)
Other time (%) = 0 (0)

Nlocal:    500 ave 500 max 500 min
Histogram: 1 0 0 0 0 0 0 0 0 0
Nghost:    2172 ave 2172 max 2172 min
Histogram: 1 0 0 0 0 0 0 0 0 0
Neighs:    22914 ave 22914 max 22914 min
Histogram: 1 0 0 0 0 0 0 0 0 0

Total # of neighbors = 22914
Ave neighs/atom = 45.828
Neighbor list builds = 0
Dangerous builds = 0
WARNING: Resetting reneighboring criteria during minimization (min.cpp:166)
Setting up minimization ...
Memory usage per processor = 2.43658 Mbytes
mystep PotEng Xy Xz Yz Lx 
         476   -7.6560191    -0.014938            0            0        7.469 
         476   -7.6560337    -0.014938            0            0        7.469 

Minimization stats:
  Stopping criterion = energy tolerance
  Energy initial, next-to-last, final = 
        -7.65601905023     -7.65603363491     -7.65603369217
  Force two-norm initial, final = 1.39701 0.210766
  Force max component initial, final = 0.138904 0.0665425
  Final line search alpha, max atom move = 0.00390625 0.000259932
  Iterations, force evaluations = 27 262

Pair  time (%) = 0.21847 (95.5172)
Neigh time (%) = 0 (0)
Comm  time (%) = 0.00666881 (2.91567)
Outpt time (%) = 0 (0)
Other time (%) = 0.00358438 (1.56713)

Nlocal:    500 ave 500 max 500 min
Histogram: 1 0 0 0 0 0 0 0 0 0
Nghost:    2172 ave 2172 max 2172 min
Histogram: 1 0 0 0 0 0 0 0 0 0
Neighs:    22914 ave 22914 max 22914 min
Histogram: 1 0 0 0 0 0 0 0 0 0

Total # of neighbors = 22914
Ave neighs/atom = 45.828
Neighbor list builds = 0
Dangerous builds = 0
WARNING: No fixes defined, atoms won't move (verlet.cpp:52)
Setting up run ...
Memory usage per processor = 1.7156 Mbytes
mystep PotEng Xy Xz Yz Lx 
         476   -7.6560337    -0.014938            0            0        7.469 

Pair  time (%) = 0 (0)
Neigh time (%) = 0 (0)
Comm  time (%) = 0 (0)
Outpt time (%) = 0 (0)
Other time (%) = 0 (0)

Nlocal:    500 ave 500 max 500 min
Histogram: 1 0 0 0 0 0 0 0 0 0
Nghost:    2172 ave 2172 max 2172 min
Histogram: 1 0 0 0 0 0 0 0 0 0
Neighs:    22909 ave 22909 max 22909 min
Histogram: 1 0 0 0 0 0 0 0 0 0

Total # of neighbors = 22909
Ave neighs/atom = 45.818
Neighbor list builds = 0
Dangerous builds = 0
Setting up run ...
Memory usage per processor = 1.7156 Mbytes
mystep PotEng Xy Xz Yz Lx 
         477   -7.6560337    -0.014938            0            0        7.469 
         477   -7.6560337    -0.007469            0            0        7.469 

Pair  time (%) = 0.00083518 (94.6757)
Neigh time (%) = 0 (0)
Comm  time (%) = 2.59876e-05 (2.94595)
Outpt time (%) = 7.15256e-06 (0.810811)
Other time (%) = 1.38283e-05 (1.56757)

Nlocal:    500 ave 500 max 500 min
Histogram: 1 0 0 0 0 0 0 0 0 0
Nghost:    2172 ave 2172 max 2172 min
Histogram: 1 0 0 0 0 0 0 0 0 0
Neighs:    22909 ave 22909 max 22909 min
Histogram: 1 0 0 0 0 0 0 0 0 0

Total # of neighbors = 22909
Ave neighs/atom = 45.818
Neighbor list builds = 0
Dangerous builds = 0
WARNING: No fixes defined, atoms won't move (verlet.cpp:52)
Setting up run ...
Memory usage per processor = 1.7156 Mbytes
mystep PotEng Xy Xz Yz Lx 
         477    -7.656066    -0.007469            0            0        7.469 

Pair  time (%) = 0 (0)
Neigh time (%) = 0 (0)
Comm  time (%) = 0 (0)
Outpt time (%) = 0 (0)
Other time (%) = 0 (0)

Nlocal:    500 ave 500 max 500 min
Histogram: 1 0 0 0 0 0 0 0 0 0
Nghost:    2172 ave 2172 max 2172 min
Histogram: 1 0 0 0 0 0 0 0 0 0
Neighs:    22909 ave 22909 max 22909 min
Histogram: 1 0 0 0 0 0 0 0 0 0

Total # of neighbors = 22909
Ave neighs/atom = 45.818
Neighbor list builds = 0
Dangerous builds = 0
WARNING: Resetting reneighboring criteria during minimization (min.cpp:166)
Setting up minimization ...
Memory usage per processor = 2.43658 Mbytes
mystep PotEng Xy Xz Yz Lx 
         478    -7.656066    -0.007469            0            0        7.469 
         478   -7.6560816    -0.007469            0            0        7.469 

Minimization stats:
  Stopping criterion = energy tolerance
  Energy initial, next-to-last, final = 
        -7.65606603625     -7.65608150717      -7.6560815591
  Force two-norm initial, final = 1.40085 0.170061
  Force max component initial, final = 0.145076 0.0685865
  Final line search alpha, max atom move = 0.00195312 0.000133958
  Iterations, force evaluations = 24 232

Pair  time (%) = 0.193562 (95.5129)
Neigh time (%) = 0 (0)
Comm  time (%) = 0.00592279 (2.9226)
Outpt time (%) = 0 (0)
Other time (%) = 0.00317049 (1.56448)

Nlocal:    500 ave 500 max 500 min
Histogram: 1 0 0 0 0 0 0 0 0 0
Nghost:    2172 ave 2172 max 2172 min
Histogram: 1 0 0 0 0 0 0 0 0 0
Neighs:    22909 ave 22909 max 22909 min
Histogram: 1 0 0 0 0 0 0 0 0 0

Total # of neighbors = 22909
Ave neighs/atom = 45.818
Neighbor list builds = 0
Dangerous builds = 0
WARNING: No fixes defined, atoms won't move (verlet.cpp:52)
Setting up run ...
Memory usage per processor = 1.7156 Mbytes
mystep PotEng Xy Xz Yz Lx 
         478   -7.6560816    -0.007469            0            0        7.469 

Pair  time (%) = 0 (0)
Neigh time (%) = 0 (0)
Comm  time (%) = 0 (0)
Outpt time (%) = 0 (0)
Other time (%) = 0 (0)

Nlocal:    500 ave 500 max 500 min
Histogram: 1 0 0 0 0 0 0 0 0 0
Nghost:    2172 ave 2172 max 2172 min
Histogram: 1 0 0 0 0 0 0 0 0 0
Neighs:    22909 ave 22909 max 22909 min
Histogram: 1 0 0 0 0 0 0 0 0 0

Total # of neighbors = 22909
Ave neighs/atom = 45.818
Neighbor list builds = 0
Dangerous builds = 0
Setting up run ...
Memory usage per processor = 1.7156 Mbytes
mystep PotEng Xy Xz Yz Lx 
         479   -7.6560816    -0.007469            0            0        7.469 
         479   -7.6560816 -8.8817842e-16            0            0        7.469 

Pair  time (%) = 0.000835896 (94.885)
Neigh time (%) = 0 (0)
Comm  time (%) = 2.59876e-05 (2.94993)
Outpt time (%) = 6.91414e-06 (0.784844)
Other time (%) = 1.21593e-05 (1.38024)

Nlocal:    500 ave 500 max 500 min
Histogram: 1 0 0 0 0 0 0 0 0 0
Nghost:    2172 ave 2172 max 2172 min
Histogram: 1 0 0 0 0 0 0 0 0 0
Neighs:    22909 ave 22909 max 22909 min
Histogram: 1 0 0 0 0 0 0 0 0 0

Total # of neighbors = 22909
Ave neighs/atom = 45.818
Neighbor list builds = 0
Dangerous builds = 0
WARNING: No fixes defined, atoms won't move (verlet.cpp:52)
Setting up run ...
Memory usage per processor = 1.7156 Mbytes
mystep PotEng Xy Xz Yz Lx 
         479   -7.6561021 -8.8817842e-16            0            0        7.469 

Pair  time (%) = 0 (0)
Neigh time (%) = 0 (0)
Comm  time (%) = 0 (0)
Outpt time (%) = 0 (0)
Other time (%) = 0 (0)

Nlocal:    500 ave 500 max 500 min
Histogram: 1 0 0 0 0 0 0 0 0 0
Nghost:    2172 ave 2172 max 2172 min
Histogram: 1 0 0 0 0 0 0 0 0 0
Neighs:    22909 ave 22909 max 22909 min
Histogram: 1 0 0 0 0 0 0 0 0 0

Total # of neighbors = 22909
Ave neighs/atom = 45.818
Neighbor list builds = 0
Dangerous builds = 0
WARNING: Resetting reneighboring criteria during minimization (min.cpp:166)
Setting up minimization ...
Memory usage per processor = 2.43658 Mbytes
mystep PotEng Xy Xz Yz Lx 
         480   -7.6561021 -8.8817842e-16            0            0        7.469 
         480   -7.6561193 -8.8817842e-16            0            0        7.469 

Minimization stats:
  Stopping criterion = energy tolerance
  Energy initial, next-to-last, final = 
        -7.65610207319     -7.65611920075     -7.65611927104
  Force two-norm initial, final = 1.42548 0.232822
  Force max component initial, final = 0.155153 0.0369777
  Final line search alpha, max atom move = 0.00195312 7.22221e-05
  Iterations, force evaluations = 29 275

Pair  time (%) = 0.229241 (95.4961)
Neigh time (%) = 0 (0)
Comm  time (%) = 0.00703001 (2.92852)
Outpt time (%) = 0 (0)
Other time (%) = 0.0037818 (1.5754)

Nlocal:    500 ave 500 max 500 min
Histogram: 1 0 0 0 0 0 0 0 0 0
Nghost:    2172 ave 2172 max 2172 min
Histogram: 1 0 0 0 0 0 0 0 0 0
Neighs:    22909 ave 22909 max 22909 min
Histogram: 1 0 0 0 0 0 0 0 0 0

Total # of neighbors = 22909
Ave neighs/atom = 45.818
Neighbor list builds = 0
Dangerous builds = 0
WARNING: No fixes defined, atoms won't move (verlet.cpp:52)
Setting up run ...
Memory usage per processor = 1.7156 Mbytes
mystep PotEng Xy Xz Yz Lx 
         480   -7.6561193 -8.8817842e-16            0            0        7.469 

Pair  time (%) = 0 (0)
Neigh time (%) = 0 (0)
Comm  time (%) = 0 (0)
Outpt time (%) = 0 (0)
Other time (%) = 0 (0)

Nlocal:    500 ave 500 max 500 min
Histogram: 1 0 0 0 0 0 0 0 0 0
Nghost:    2172 ave 2172 max 2172 min
Histogram: 1 0 0 0 0 0 0 0 0 0
Neighs:    22913 ave 22913 max 22913 min
Histogram: 1 0 0 0 0 0 0 0 0 0

Total # of neighbors = 22913
Ave neighs/atom = 45.826
Neighbor list builds = 0
Dangerous builds = 0
