ITEM: TIMESTEP
1
ITEM: NUMBER OF ATOMS
500
ITEM: BOX BOUNDS xy xz yz pp pp pp
-3.7345 3.7345 -8.88178e-16
-3.7345 3.7345 0
-3.7345 3.7345 0
ITEM: ATOMS type xu yu zu 
1 0.601911 -2.32125 2.49892 
1 -2.70717 -1.41942 -0.309671 
1 1.99974 -1.86568 -3.14299 
1 -0.362923 -0.185119 -0.0961561 
1 1.16674 -2.49662 -0.493487 
1 -1.53381 -3.63365 2.92175 
1 2.04818 3.28164 -2.52918 
1 -1.22887 -0.167731 2.72908 
1 2.14913 -0.333317 -1.47696 
1 -3.39597 -2.14941 2.04141 
1 1.15343 1.84583 1.09695 
1 -1.74574 -2.06822 1.03527 
1 -1.27259 -0.0064758 -3.07725 
1 1.98472 2.90943 3.72956 
1 -2.16518 -0.574678 -2.98294 
1 0.915916 0.908616 -0.416634 
1 1.01066 -0.762551 2.1745 
1 -1.28031 0.897536 2.79372 
1 -3.37324 -2.22983 -0.185166 
1 -2.79225 -1.71104 0.717699 
1 -3.55742 1.4901 -2.35401 
1 -2.2417 -1.39203 -1.29134 
1 2.03423 1.84736 1.69854 
1 -2.47822 2.58142 0.996534 
1 -2.4594 -2.36426 -3.5712 
1 1.4729 -3.37622 -0.978869 
1 -1.74452 -2.00716 3.04586 
1 -0.738847 1.45662 -0.960062 
1 0.817683 0.96843 -3.17304 
1 -2.84524 0.148662 -2.48309 
1 3.03279 -2.77374 0.590089 
1 -2.64281 -2.65069 1.25743 
1 -1.23888 -0.72662 0.00193721 
1 3.60008 -0.221865 3.24559 
1 3.264 0.000986761 -3.19289 
1 -2.32892 0.860887 0.160033 
1 -2.9584 0.430478 -0.613943 
1 -1.87705 -1.03547 2.5797 
1 -2.31002 -0.0475646 2.54937 
1 2.77515 2.10726 -3.72236 
1 3.00148 -1.99694 -1.51306 
1 -0.426559 -3.56319 2.97103 
1 -0.0363472 -1.89833 -2.3902 
1 0.543903 -3.33083 2.41029 
1 0.794287 -0.0662233 -2.75427 
1 3.06593 2.07338 1.55342 
1 2.36732 -0.736005 -0.538779 
1 -2.49058 1.74436 1.74414 
1 2.80799 -0.581883 1.47431 
1 0.601326 -0.702362 0.133069 
1 -1.17966 1.04492 -2.76703 
1 -1.56892 2.70707 -1.55636 
1 -3.09541 -1.01054 -2.41943 
1 -0.75867 -0.171204 0.915453 
1 2.40744 -0.842593 -3.12387 
1 -1.89388 2.852 2.89308 
1 0.937402 -3.56003 -1.89301 
1 2.16355 -2.94021 2.14308 
1 0.827518 2.15576 2.09304 
1 -0.888334 -1.30637 2.95 
1 -0.52853 2.84841 0.0269391 
1 0.123574 2.2169 2.95426 
1 1.77462 0.677088 -1.66901 
1 -3.43421 2.17697 2.05203 
1 0.554445 -3.14983 3.47264 
1 -3.06618 -3.59385 3.51865 
1 -1.72016 1.69078 -1.30787 
1 -3.4431 -3.19915 1.62486 
1 -0.288389 -2.52036 3.24735 
1 -0.600136 -1.87556 -0.300942 
1 -3.53812 2.98464 -2.47709 
1 -0.71806 1.73777 3.35309 
1 1.08292 -1.71747 1.72049 
1 1.34286 -1.04894 -2.79203 
1 0.635996 -3.48068 -0.359981 
1 1.36752 -3.70214 -3.16082 
1 -1.59351 2.54504 1.65703 
1 2.51445 -3.69295 -3.4454 
1 1.53481 2.33246 -2.02477 
1 -3.05239 -3.10248 -2.90013 
1 -0.0411184 -0.684595 2.63468 
1 -1.25337 -3.43493 -2.91463 
1 1.88042 0.696579 -3.36236 
1 -1.0934 2.20232 -3.23036 
1 3.26438 2.29173 -1.96533 
1 -2.90466 -0.338955 1.73407 
1 -0.534851 1.49061 2.28549 
1 2.50735 -3.66445 -0.742401 
1 1.28672 0.236961 0.775138 
1 -3.26371 -0.411534 -3.3106 
1 -0.525587 -0.358216 3.59058 
1 -2.91892 -1.97273 3.03565 
1 2.13143 -2.00613 1.645 
1 -1.12364 3.57066 0.505249 
1 0.664402 0.133973 2.60593 
1 -2.34167 -2.89959 2.98622 
1 2.63603 -0.0897468 2.3877 
1 -0.594058 1.78247 0.179979 
1 -1.90434 -3.23931 -1.22142 
1 -2.13756 0.71229 -3.01609 
1 3.07718 -2.58391 1.68272 
1 0.498474 -1.70893 -0.25473 
1 -3.59447 -1.22251 3.40758 
1 1.23741 0.815072 3.26253 
1 -3.55422 2.22822 -0.298472 
1 2.89759 1.10816 1.16533 
1 0.73096 0.811047 1.44561 
1 -0.0457868 -2.46504 0.380957 
1 0.179456 -1.57567 3.23404 
1 2.10915 2.25944 -2.91075 
1 2.95673 0.933636 -3.48231 
1 3.67527 -2.54005 -2.22384 
1 2.0743 -1.07339 2.206 
1 0.744049 0.772774 -2.09232 
1 -1.5693 1.48915 -0.194837 
1 3.62978 -0.560622 2.21509 
1 -2.6069 1.74311 -1.90428 
1 0.27256 -2.24127 -3.35755 
1 -2.82583 3.66805 -1.34412 
1 1.52548 -0.280101 -3.53782 
1 -2.59261 -0.610911 3.38163 
1 2.92807 -1.87402 -2.5962 
1 2.27208 -2.28298 0.00574581 
1 2.27565 -3.60606 2.96126 
1 1.50554 1.71785 -3.62312 
1 2.1917 -2.61972 -1.00538 
1 1.72388 1.37088 -2.51861 
1 -2.21146 3.36715 0.296436 
1 -1.18931 0.489256 0.0442241 
1 2.94222 -1.04737 2.88172 
1 2.6759 1.99866 2.61851 
1 -0.342662 -1.14027 0.431932 
1 -1.62188 -3.34975 -0.216518 
1 -0.189948 0.363763 -2.91915 
1 -1.01429 3.08844 2.3682 
1 -1.07774 -2.66394 2.57606 
1 0.0988743 -2.58578 -0.731844 
1 -1.82095 0.695993 -0.893232 
1 1.92886 -1.10743 1.06376 
1 -0.889162 1.86769 1.21603 
1 -2.63712 3.71015 2.48781 
1 2.24626 2.40518 -0.155688 
1 0.422624 -0.0146132 -0.793169 
1 -2.49972 -2.36033 -0.866322 
1 -2.22864 -3.66615 -2.41818 
1 -3.48062 3.20398 1.68987 
1 2.10979 -2.91576 -2.85954 
1 2.09756 1.60832 0.567853 
1 1.41595 3.7 1.11296 
1 -2.97989 1.67121 0.448212 
1 1.6506 -3.18238 0.124445 
1 -3.54231 2.36435 1.00542 
1 2.5282 -0.0996514 3.48944 
1 -0.83987 -0.743377 1.91878 
1 2.96674 -1.60811 -0.491356 
1 0.0739087 3.70036 -1.2597 
1 -3.10334 -0.438551 0.0743713 
1 -1.84055 -2.52902 -2.74063 
1 -0.780297 2.86697 3.34643 
1 3.24976 -3.69055 1.10134 
1 2.90867 -0.315282 -2.24119 
1 -0.334754 1.06224 -2.11242 
1 -2.92541 -1.10882 2.46474 
1 -3.65675 2.7305 -3.52238 
1 2.33225 -1.18643 -2.07254 
1 3.65006 2.25015 3.02849 
1 1.46799 -2.79752 2.95634 
1 2.79478 3.23837 -1.63943 
1 3.24496 -3.3143 3.3173 
1 -2.59187 2.43722 -1.09965 
1 3.09549 2.82956 -0.672617 
1 -0.202896 2.5197 2.00594 
1 3.48318 -1.09265 -1.81659 
1 2.01806 2.84126 2.62774 
1 -0.54965 -0.926537 -1.64092 
1 -2.46901 3.63526 1.40234 
1 -2.1604 -3.36657 -3.46711 
1 1.22934 1.8598 -0.00740399 
1 -3.44679 1.25613 3.08335 
1 1.4541 2.40105 -0.913725 
1 0.127766 1.6669 1.4511 
1 -2.64149 -2.84316 -1.87987 
1 0.417521 -0.94658 -2.2288 
1 -3.09049 3.15664 -0.3938 
1 2.95921 2.86955 -2.89643 
1 1.16093 -2.4801 -1.54957 
1 -2.28114 2.33977 -0.0854236 
1 -2.97139 0.368385 3.36806 
1 2.51516 0.647451 -2.49594 
1 2.41017 0.167653 0.788603 
1 2.05404 -2.22062 -2.04444 
1 -3.38621 -0.201346 -1.62315 
1 1.26924 3.57006 3.24262 
1 0.0045918 1.94444 -1.65928 
1 -2.55021 2.76583 2.06729 
1 -0.322145 -1.91611 2.28013 
1 -1.26195 3.62396 1.52878 
1 -1.56511 1.90828 2.63744 
1 0.11127 -1.14659 1.65388 
1 -2.34048 0.997058 2.72905 
1 0.0802933 -0.0495672 1.69137 
1 -0.453575 -3.35166 -0.160952 
1 -0.543419 -1.88026 1.19257 
1 -0.757096 -3.0714 -1.19631 
1 0.169705 0.936421 -1.19801 
1 -3.58779 -1.13307 -0.832644 
1 3.10143 -1.53058 1.89004 
1 -3.71663 -0.362575 0.955791 
1 -1.25369 3.70771 -1.87776 
1 0.91665 -0.660625 1.14684 
1 2.96399 3.07316 3.30487 
1 -2.6346 1.4539 -0.702491 
1 -1.02068 1.9344 -2.16419 
1 -3.54673 1.72731 -1.28541 
1 1.05741 -0.216965 -1.69524 
1 0.59711 2.87239 -1.76104 
1 2.8313 -0.724055 0.424722 
1 2.75641 1.25861 -1.64461 
1 -2.55457 2.82354 -2.09253 
1 -1.72692 -1.69442 -0.00461722 
1 -1.42539 2.52009 0.533276 
1 3.71162 1.66625 -3.46754 
1 -2.67495 1.96885 2.8208 
1 -2.18343 -0.892164 0.482155 
1 -2.33174 -2.55008 0.211455 
1 0.428672 3.34073 -2.78052 
1 1.16911 2.67019 -3.06172 
1 1.2959 -1.62712 2.79123 
1 0.451418 0.144865 3.67171 
1 -0.915877 -2.70547 -2.18242 
1 2.28264 1.26628 3.28212 
1 3.44776 1.32274 2.21409 
1 2.37722 3.48128 1.62277 
1 -0.116075 -0.997583 -0.690014 
1 -0.4908 -0.641902 -2.6952 
1 -2.46243 0.663636 1.72177 
1 1.69167 3.22549 -1.51588 
1 -1.57582 2.92228 -2.58758 
1 0.326342 -0.829769 -3.35262 
1 1.99677 -1.1405 3.40678 
1 -0.326865 -3.35992 0.9497 
1 1.80726 -0.184143 1.64374 
1 0.665274 2.84067 -0.353612 
1 0.293719 2.33588 0.572306 
1 -2.73794 -1.37578 -3.37147 
1 3.15031 -2.76351 -3.15547 
1 3.37359 -2.15515 2.89054 
1 2.3701 2.60793 0.944434 
1 -3.31177 0.47345 2.34896 
1 1.63029 3.29172 -0.335037 
1 -3.38842 1.24667 1.38316 
1 -2.28298 -1.20894 1.53464 
1 -1.65045 1.38945 3.69876 
1 -1.9713 1.76928 -2.74156 
1 3.53991 0.521746 -2.20466 
1 1.9238 1.40963 -0.777858 
1 -0.291706 -3.28677 -3.38721 
1 2.89294 -1.67381 -3.71048 
1 -2.70079 1.35685 -3.64595 
1 -0.62556 3.19473 -3.12792 
1 0.269817 0.214508 0.626923 
1 -1.54932 -0.750117 3.60161 
1 1.0815 -2.10763 -2.55575 
1 -3.63535 3.3988 2.75617 
1 -3.38022 0.731373 -3.12704 
1 2.3957 2.2468 -1.35349 
1 -1.41109 -0.660658 -2.19776 
1 1.15185 2.49049 3.19403 
1 1.54471 2.77942 1.64261 
1 3.37391 0.339648 1.6657 
1 1.20071 -2.82067 1.65222 
1 0.172168 1.1404 3.40513 
1 -2.49612 0.0420276 0.847515 
1 3.15474 -2.66735 -0.511149 
1 -3.62553 1.18224 -0.261301 
1 -1.32728 -2.85974 3.59725 
1 -1.32521 -1.74172 1.97345 
1 -3.33896 0.561053 0.529643 
1 0.254827 1.79425 -0.494802 
1 -2.86726 -2.09593 -2.57477 
1 1.48624 0.637958 2.2466 
1 -1.64415 -1.68557 -3.39115 
1 -0.793239 0.689054 3.71224 
1 0.458373 1.27421 0.500214 
1 -0.101276 2.38991 -2.70155 
1 -1.7947 -3.18539 0.894664 
1 -1.04088 -1.61842 -2.46189 
1 1.51587 -2.10572 0.763403 
1 3.52288 0.651392 -1.12136 
1 2.44985 1.01563 2.20727 
1 3.10038 2.90026 2.22034 
1 2.38774 -2.65426 3.56712 
1 3.15766 -0.341125 -1.12275 
1 3.02469 -3.0684 -1.52011 
1 1.3158 -2.62555 -3.48129 
1 -0.228 3.65158 1.91371 
1 0.73129 -3.09755 0.695422 
1 -3.23964 3.40622 0.652697 
1 -2.6783 -0.532408 -0.886194 
1 -2.21386 2.30682 -3.65753 
1 -1.888 -3.13219 2.01272 
1 -3.57197 -3.54348 -2.02234 
1 3.62155 3.72501 -3.2315 
1 2.91022 1.63118 -2.68886 
1 0.366279 -1.68241 -1.37238 
1 1.29832 -1.36387 -1.78426 
1 -0.480258 0.893648 0.970194 
1 0.249081 3.13171 3.58045 
1 -0.198653 0.845716 -0.193137 
1 2.74726 -1.75097 0.803088 
1 -3.52557 2.83703 -1.38281 
1 -0.961201 3.41288 -0.836004 
1 0.500432 2.02143 -3.54475 
1 -3.39141 -1.24319 1.50147 
1 0.727495 1.78831 -2.47063 
1 1.48453 3.71175 2.19277 
1 -2.06071 -0.0868262 -0.171979 
1 3.10835 1.91133 0.413435 
1 2.35909 3.56814 0.454412 
1 -3.01494 0.810743 -1.63132 
1 0.259755 3.4142 0.445552 
1 0.50951 -1.67436 0.822672 
1 -0.603971 -1.36873 -3.47329 
1 -0.665379 -1.99287 -1.43351 
1 -1.63795 3.20126 -3.6071 
1 1.03472 1.53891 -1.39394 
1 2.98516 1.68661 -0.657122 
1 1.08107 -1.59818 -3.63563 
1 -2.87963 2.89098 3.23669 
1 1.5754 1.66484 2.64235 
1 0.539208 1.19897 2.41887 
1 -1.25628 -1.29828 -0.886012 
1 -0.53174 2.92202 1.1003 
1 -2.31911 -2.11396 2.13956 
1 1.85898 0.690085 0.0327022 
1 -1.07267 0.290166 -2.01199 
1 1.68429 -0.233786 2.8315 
1 -1.94861 1.62761 0.833442 
1 3.11723 -3.47967 2.23968 
1 0.86132 -0.751784 3.22051 
1 -1.24975 2.39301 -0.598329 
1 -0.272401 1.44125 -3.13237 
1 -3.38651 -3.0144 0.524274 
1 3.10705 0.659604 2.95281 
1 1.84129 -0.178941 -2.46748 
1 -2.71456 -3.33249 -0.363019 
1 1.02094 -0.907818 -0.851156 
1 -0.981368 -2.78325 1.5412 
1 -1.73935 -2.23365 -1.70116 
1 -2.08227 -1.4548 -2.38032 
1 2.92071 -3.55732 -2.46052 
1 -2.69326 3.18738 -3.18245 
1 3.4047 0.037553 -0.110742 
1 -3.2174 -1.84397 -1.58779 
1 0.630686 3.10426 2.48904 
1 3.31131 -3.59836 0.0150521 
1 2.88592 0.907677 0.125517 
1 1.53779 -1.53559 -0.174087 
1 3.26879 2.92611 0.40502 
1 -1.60759 0.604928 1.00074 
1 -1.29869 -1.08873 1.02423 
1 -2.0002 0.828792 -1.96145 
1 -3.73179 -1.283 0.263487 
1 1.50858 0.0482209 -0.726438 
1 0.148919 -2.75153 -1.79731 
1 -0.5477 2.91882 -1.90831 
1 2.31088 -2.00953 2.72125 
1 -1.62153 -0.331512 -1.14581 
1 -0.736129 0.337652 -0.998667 
1 2.04365 -3.29708 -1.87098 
1 2.04796 -1.58745 -1.09416 
1 0.146837 -2.64077 1.57169 
1 3.622 -3.73069 -0.958297 
1 -2.96898 2.16059 -2.90126 
1 -1.53901 1.26678 1.80963 
1 3.42186 -0.992117 -2.89812 
1 1.83478 0.910898 1.30954 
1 -0.0126603 0.010222 -1.83776 
1 -1.7662 -0.259661 1.61254 
1 -3.42139 -3.00731 2.66328 
1 -0.896163 0.403154 1.83715 
1 -0.312294 0.452858 2.72397 
1 -1.42522 -2.41139 -0.700318 
1 -0.778512 -2.35818 -3.16599 
1 -3.72819 -2.10178 0.987081 
1 2.13534 -2.97324 1.0745 
1 1.68116 -0.522214 0.201419 
1 0.546966 3.06898 1.40479 
1 -0.18989 2.67753 -0.944578 
1 2.50895 0.484351 -0.821626 
1 -3.46485 -2.65816 3.64829 
1 0.617696 -3.06012 -2.7703 
1 -1.09321 -2.59924 0.362662 
1 -0.300312 -3.56204 -2.30701 
1 -1.87695 0.29245 3.5016 
1 -2.36355 -0.504379 -1.87326 
1 -3.4474 -2.78424 -1.17107 
1 1.32238 2.78229 0.559253 
1 -3.66005 -1.88755 -3.20588 
1 -2.03503 3.26155 -0.754261 
2 2.44245 2.58305 -2.16458 
2 3.63691 1.2678 0.61845 
2 1.25765 1.39836 1.85416 
2 -1.90275 0.0690541 -2.41559 
2 2.7868 -1.13238 -1.25742 
2 0.917993 3.37823 -1.0436 
2 1.32329 1.12514 0.592574 
2 0.0598215 -0.57484 0.95614 
2 1.21401 -1.23154 0.558673 
2 -1.71596 0.460993 2.16283 
2 -1.44825 3.10776 -0.136303 
2 2.48918 0.0071524 -0.0677655 
2 -3.0341 2.60332 0.31104 
2 -0.976103 -3.46655 2.25295 
2 -1.43089 2.28162 3.42551 
2 -3.29215 2.26934 -2.01753 
2 -3.51006 -0.246147 -0.740446 
2 -3.25228 0.36836 1.38265 
2 3.17105 1.49703 3.24086 
2 -1.73056 -3.04738 -2.05574 
2 -0.752881 2.28472 2.66313 
2 3.30211 -2.0616 0.173713 
2 -2.63468 1.02376 0.956125 
2 -3.0898 1.33728 2.25797 
2 3.27497 0.369369 0.752694 
2 1.39081 -2.90418 -2.32716 
2 1.20832 3.17229 -2.32162 
2 3.58679 2.22518 -2.80042 
2 1.16569 -1.76819 -0.978031 
2 -1.29479 -0.936348 -3.02994 
2 2.52893 -3.13897 -0.0360341 
2 -1.86491 3.38946 2.14591 
2 1.09809 3.61021 0.293286 
2 0.985581 0.574437 -1.24684 
2 2.76669 -2.81086 2.76375 
2 0.853757 1.65166 3.16408 
2 3.33592 -1.1606 1.05286 
2 3.10273 -0.773254 -3.71607 
2 -0.174348 -2.73717 -2.66185 
2 -1.18555 1.25508 0.575367 
2 0.566085 -1.51867 -2.90796 
2 2.77485 -2.69353 -2.28718 
2 -1.62508 -0.217231 0.649176 
2 0.334372 -0.703899 -1.3897 
2 -1.01285 -1.72162 0.47708 
2 -0.828714 2.23833 -1.36795 
2 -2.92403 -0.771742 0.923663 
2 -1.79329 3.162 1.03016 
2 2.23938 2.96173 -0.879222 
2 -0.986864 -2.01758 3.50218 
2 -0.977152 -3.71212 3.67509 
2 2.39145 0.0326603 -3.11778 
2 2.28346 1.47592 -3.28996 
2 0.610318 2.30276 -1.10273 
2 -0.0269598 3.39683 -0.437155 
2 -1.15515 1.13851 -1.73392 
2 1.79286 -3.29613 3.64943 
2 -3.10105 2.11404 3.60765 
2 -0.204882 -2.83518 2.39172 
2 -2.2016 -1.3815 3.40155 
2 3.65497 -2.00173 -0.91671 
2 -2.27324 3.54728 3.31079 
2 -0.294481 2.37423 -3.59386 
2 0.66428 -3.10317 -1.16302 
2 -2.55324 0.0702464 -3.40756 
2 1.89518 1.57681 -1.66457 
2 -0.837202 -0.519284 -0.793131 
2 3.67206 0.586103 3.60419 
2 1.42167 0.562124 -2.61084 
2 -2.76493 1.06467 -2.48565 
2 -2.73932 -2.9079 2.12197 
2 3.72094 -1.41589 2.52307 
2 0.821244 -2.32122 0.286139 
2 -3.66935 -1.68329 -2.36183 
2 2.1652 0.499159 2.88337 
2 -2.04749 3.43075 -1.63835 
2 -0.086898 0.836763 1.84281 
2 -3.14343 -0.29955 2.73996 
2 0.94569 0.100289 -0.0318847 
2 0.544428 -3.48139 1.49833 
2 3.18747 2.9152 1.30782 
2 -1.44302 -1.3959 -1.72143 
2 -2.4212 0.203054 -1.34334 
2 -1.97242 -0.931818 -0.487626 
2 -3.04136 -0.999246 -1.53605 
2 -0.198628 3.07898 2.72393 
2 0.484459 -1.43882 2.41151 
2 2.02478 2.15103 3.24332 
2 2.38919 2.61466 1.84368 
2 2.33748 -1.37171 0.113924 
2 -2.59895 -3.36796 0.599428 
2 0.778957 -2.27699 3.35217 
2 1.7571 -2.04089 3.44321 
2 3.24217 -0.790599 -0.344411 
2 -3.6619 -0.294725 -2.48724 
2 2.49747 0.367895 1.62698 
2 1.5488 -2.2737 2.25805 
2 2.79331 0.3474 -1.65845 
2 0.967199 0.0277855 1.75316 
2 -3.55411 -3.09148 -0.355023 
