ITEM: TIMESTEP
437
ITEM: NUMBER OF ATOMS
500
ITEM: BOX BOUNDS xy xz yz pp pp pp
-3.7345 3.77931 0.044814
-3.7345 3.7345 0
-3.7345 3.7345 0
ITEM: ATOMS type xu yu zu 
1 0.65458 -2.30272 2.43933 
1 -2.70617 -1.41385 -0.309398 
1 2.01887 -1.86769 -3.15959 
1 -0.344418 -0.202415 -0.0756038 
1 1.18366 -2.48604 -0.50332 
1 -1.55365 -3.62717 2.94644 
1 2.07944 3.29355 -2.53796 
1 -1.20825 -0.155667 2.74052 
1 2.17557 -0.328002 -1.48243 
1 -3.38662 -2.20157 1.99082 
1 1.18481 1.84733 1.09599 
1 -1.73933 -2.05125 1.02262 
1 -1.24055 -9.91217e-06 -3.07534 
1 2.02043 2.90204 3.73408 
1 -2.13632 -0.558655 -2.99043 
1 0.947777 0.91529 -0.415158 
1 1.02157 -0.743151 2.17188 
1 -1.25184 0.903957 2.79991 
1 -3.36728 -2.23261 -0.184107 
1 -2.78177 -1.7099 0.720314 
1 -3.52795 1.48884 -2.34408 
1 -2.22905 -1.39116 -1.29024 
1 2.06467 1.85877 1.69618 
1 -2.42551 2.5783 0.997307 
1 -2.49114 -2.35431 -3.58738 
1 1.46877 -3.37645 -0.975326 
1 -1.74565 -1.95145 3.10137 
1 -0.716586 1.4305 -0.969103 
1 0.848535 0.973088 -3.16871 
1 -2.82117 0.149587 -2.48739 
1 3.05498 -2.75349 0.551688 
1 -2.62584 -2.6412 1.28397 
1 -1.19573 -0.79626 0.0208049 
1 3.61598 -0.212014 3.24578 
1 3.28756 0.00257872 -3.19427 
1 -2.26403 0.827524 0.155651 
1 -2.92033 0.435502 -0.606894 
1 -1.83851 -1.02026 2.55781 
1 -2.29139 -0.0448354 2.55198 
1 2.79956 2.10336 -3.71537 
1 3.01166 -1.98862 -1.52 
1 -0.463486 -3.58094 2.98017 
1 -0.0136752 -1.89878 -2.3998 
1 0.502973 -3.30803 2.51385 
1 0.821265 -0.0647964 -2.75546 
1 3.10133 2.127 1.55869 
1 2.38928 -0.718223 -0.541386 
1 -2.4442 1.75188 1.76479 
1 2.8389 -0.610259 1.47775 
1 0.639773 -0.689556 0.125027 
1 -1.15138 1.04761 -2.7567 
1 -1.53041 2.70579 -1.54725 
1 -3.07026 -0.999649 -2.4244 
1 -0.730409 -0.172156 0.927627 
1 2.43532 -0.845681 -3.1311 
1 -1.85499 2.85497 2.8827 
1 0.944182 -3.56814 -1.89668 
1 2.17433 -2.94532 2.13222 
1 0.858793 2.16334 2.09456 
1 -0.853833 -1.32172 2.91671 
1 -0.489974 2.82102 0.0255446 
1 0.152869 2.21271 2.9514 
1 1.80306 0.682039 -1.65922 
1 -3.39895 2.14635 2.06867 
1 0.583239 -3.22008 3.57223 
1 -3.08234 -3.60577 3.51214 
1 -1.68935 1.68903 -1.31063 
1 -3.36844 -3.28695 1.63822 
1 -0.176253 -2.56737 3.18059 
1 -0.577749 -1.85512 -0.30581 
1 -3.50508 2.97835 -2.45994 
1 -0.692367 1.74056 3.34634 
1 1.15005 -1.67297 1.70476 
1 1.35915 -1.05624 -2.81525 
1 0.618889 -3.46218 -0.357987 
1 1.35872 -3.70726 -3.18785 
1 -1.56792 2.56894 1.6854 
1 2.50218 -3.69109 -3.44793 
1 1.56858 2.33292 -2.01544 
1 -3.06041 -3.08809 -2.89496 
1 -0.0101485 -0.679142 2.62455 
1 -1.27891 -3.45265 -2.9078 
1 1.90566 0.698129 -3.35849 
1 -1.06396 2.20876 -3.23759 
1 3.28775 2.2839 -1.96429 
1 -2.87845 -0.350195 1.73973 
1 -0.505484 1.4974 2.28595 
1 2.50249 -3.64672 -0.741279 
1 1.3181 0.227122 0.804217 
1 -3.23956 -0.406565 -3.32061 
1 -0.488643 -0.343135 3.58066 
1 -3.01551 -2.03613 2.98706 
1 2.1661 -2.01459 1.63737 
1 -1.10333 3.54831 0.474802 
1 0.688749 0.146346 2.60818 
1 -2.32596 -2.87397 2.98561 
1 2.66904 -0.0960267 2.38881 
1 -0.549286 1.75858 0.214386 
1 -1.90994 -3.2409 -1.22605 
1 -2.11054 0.72786 -3.00645 
1 3.09956 -2.60589 1.6418 
1 0.522794 -1.71177 -0.223526 
1 -3.55468 -1.20763 3.39563 
1 1.26981 0.818384 3.26136 
1 -3.51407 2.22815 -0.288746 
1 2.94633 1.13672 1.1732 
1 0.755331 0.823857 1.44419 
1 -0.0228278 -2.48911 0.334275 
1 0.197517 -1.58241 3.20564 
1 2.14889 2.26087 -2.893 
1 2.98031 0.93271 -3.48401 
1 3.68919 -2.52751 -2.22272 
1 2.09714 -1.08159 2.20136 
1 0.780234 0.777297 -2.09 
1 -1.53352 1.49697 -0.173759 
1 3.66295 -0.573235 2.22693 
1 -2.57931 1.73683 -1.89537 
1 0.279057 -2.24702 -3.37209 
1 -2.79639 3.64826 -1.35615 
1 1.55289 -0.276926 -3.54335 
1 -2.52936 -0.58647 3.40094 
1 2.94847 -1.86326 -2.60444 
1 2.28261 -2.27509 -0.0173845 
1 2.27845 -3.6235 2.93902 
1 1.53739 1.72429 -3.61457 
1 2.18756 -2.60919 -1.02238 
1 1.75232 1.37217 -2.5094 
1 -2.17654 3.39063 0.304853 
1 -1.14741 0.498687 0.0510795 
1 2.96996 -1.06168 2.87618 
1 2.70368 1.99641 2.62476 
1 -0.280214 -1.15935 0.453337 
1 -1.64296 -3.31712 -0.209633 
1 -0.163417 0.362517 -2.92085 
1 -0.962592 3.1206 2.37159 
1 -1.0856 -2.63959 2.64585 
1 0.106941 -2.56728 -0.756233 
1 -1.76552 0.694823 -0.881948 
1 1.93504 -1.11257 1.06398 
1 -0.863028 1.87158 1.24946 
1 -2.57485 3.72451 2.5 
1 2.26305 2.40302 -0.155684 
1 0.447331 -0.0114611 -0.780236 
1 -2.47148 -2.35324 -0.854592 
1 -2.24658 -3.67054 -2.41269 
1 -3.52343 3.13442 1.66062 
1 2.10701 -2.91816 -2.85493 
1 2.12034 1.60565 0.557538 
1 1.48849 3.70735 1.09137 
1 -2.90419 1.64324 0.406365 
1 1.63115 -3.17417 0.14288 
1 -3.47205 2.27599 1.00003 
1 2.55147 -0.096702 3.48811 
1 -0.822161 -0.739387 1.9393 
1 2.98263 -1.59335 -0.512278 
1 0.13205 3.69108 -1.26149 
1 -3.06514 -0.430942 0.0752182 
1 -1.85953 -2.54575 -2.75632 
1 -0.760486 2.8617 3.3487 
1 3.23058 -3.63174 1.12148 
1 2.93329 -0.314704 -2.24483 
1 -0.298658 1.06524 -2.11627 
1 -2.88467 -1.11825 2.49191 
1 -3.61314 2.72873 -3.50914 
1 2.34746 -1.18018 -2.08285 
1 3.67648 2.2571 3.0378 
1 1.46538 -2.80686 2.94375 
1 2.85857 3.23955 -1.61572 
1 3.23932 -3.34014 3.31056 
1 -2.57381 2.44374 -1.09637 
1 3.13068 2.8666 -0.596969 
1 -0.164384 2.54132 2.00628 
1 3.5025 -1.09255 -1.82492 
1 2.01983 2.83784 2.62916 
1 -0.527678 -0.91369 -1.63152 
1 -2.37086 3.62229 1.4148 
1 -2.18702 -3.36825 -3.46596 
1 1.24656 1.8706 -0.00962681 
1 -3.42576 1.26219 3.06296 
1 1.47771 2.41695 -0.912371 
1 0.157588 1.67981 1.45509 
1 -2.64492 -2.83956 -1.87879 
1 0.440528 -0.94665 -2.2349 
1 -3.06817 3.16886 -0.374302 
1 2.99598 2.87215 -2.89346 
1 1.16932 -2.48226 -1.5595 
1 -2.23129 2.36949 -0.0902498 
1 -2.95069 0.373485 3.36482 
1 2.53397 0.643073 -2.49077 
1 2.46002 0.173898 0.805458 
1 2.0664 -2.21202 -2.05272 
1 -3.36409 -0.204677 -1.62825 
1 1.32645 3.55412 3.21266 
1 0.0388033 1.94263 -1.65521 
1 -2.5489 2.77834 2.07395 
1 -0.302779 -1.95433 2.24732 
1 -1.21706 3.6317 1.51806 
1 -1.53494 1.90854 2.62729 
1 0.10799 -1.15726 1.62724 
1 -2.30929 0.993585 2.72917 
1 0.114334 -0.0468182 1.69006 
1 -0.480804 -3.33118 -0.189753 
1 -0.548771 -1.92697 1.14937 
1 -0.73333 -3.08867 -1.23326 
1 0.202498 0.935389 -1.20042 
1 -3.56882 -1.11979 -0.844638 
1 3.13265 -1.55675 1.89119 
1 -3.68707 -0.370232 0.950687 
1 -1.21815 3.70127 -1.87612 
1 0.932121 -0.675355 1.14443 
1 3.01653 3.07452 3.33976 
1 -2.5901 1.45721 -0.689473 
1 -0.979423 1.94578 -2.17553 
1 -3.51265 1.72089 -1.27598 
1 1.08388 -0.214157 -1.69701 
1 0.635652 2.86389 -1.7611 
1 2.85581 -0.721965 0.42355 
1 2.78203 1.26147 -1.64027 
1 -2.51361 2.81098 -2.09486 
1 -1.73826 -1.7331 -0.0356609 
1 -1.37779 2.483 0.53992 
1 3.7405 1.66371 -3.47194 
1 -2.6347 1.96454 2.82825 
1 -2.15054 -0.915702 0.483271 
1 -2.35653 -2.56602 0.22964 
1 0.470799 3.34281 -2.78 
1 1.20523 2.66357 -3.05842 
1 1.31779 -1.60754 2.77804 
1 0.487528 0.150123 3.67647 
1 -0.922397 -2.70161 -2.20609 
1 2.30437 1.26548 3.28569 
1 3.46759 1.30692 2.18131 
1 2.40041 3.4995 1.64265 
1 -0.0747061 -0.993939 -0.687512 
1 -0.467391 -0.647653 -2.69909 
1 -2.43757 0.658822 1.7238 
1 1.75362 3.22734 -1.51648 
1 -1.53443 2.92036 -2.57987 
1 0.344356 -0.830429 -3.35769 
1 2.02066 -1.14627 3.40583 
1 -0.398644 -3.32661 0.909971 
1 1.84178 -0.191588 1.65027 
1 0.688659 2.85678 -0.349892 
1 0.328266 2.35187 0.585569 
1 -2.70366 -1.36093 -3.38542 
1 3.14281 -2.76227 -3.1453 
1 3.3694 -2.17416 2.85918 
1 2.37429 2.61472 0.945688 
1 -3.29505 0.456071 2.34769 
1 1.66385 3.3002 -0.324442 
1 -3.3278 1.23348 1.37974 
1 -2.26265 -1.21317 1.53582 
1 -1.62121 1.39142 3.70664 
1 -1.93313 1.78468 -2.72619 
1 3.56227 0.523375 -2.20525 
1 1.95441 1.41593 -0.759934 
1 -0.328208 -3.27395 -3.39125 
1 2.92169 -1.68622 -3.72035 
1 -2.67572 1.34922 -3.66009 
1 -0.587611 3.19728 -3.13235 
1 0.306098 0.228505 0.617878 
1 -1.49825 -0.76208 3.59791 
1 1.09853 -2.11245 -2.56891 
1 -3.58028 3.38202 2.72396 
1 -3.3564 0.73254 -3.12811 
1 2.42642 2.25914 -1.33924 
1 -1.38558 -0.65076 -2.19769 
1 1.17219 2.48967 3.19743 
1 1.55888 2.79807 1.64522 
1 3.39293 0.326306 1.65434 
1 1.23895 -2.77437 1.61235 
1 0.200611 1.1421 3.40764 
1 -2.46476 0.0240345 0.851427 
1 3.15504 -2.66528 -0.524138 
1 -3.60192 1.18091 -0.264228 
1 -1.35611 -2.85052 3.63576 
1 -1.30763 -1.75561 1.96809 
1 -3.29861 0.565727 0.525083 
1 0.267795 1.7975 -0.494158 
1 -2.8467 -2.08223 -2.57409 
1 1.5103 0.636997 2.23968 
1 -1.6404 -1.67932 -3.35244 
1 -0.766737 0.696442 3.71649 
1 0.47932 1.28841 0.499312 
1 -0.0644709 2.39322 -2.70684 
1 -1.76063 -3.15508 0.903457 
1 -1.01597 -1.60701 -2.45718 
1 1.55055 -2.11094 0.748292 
1 3.54914 0.651432 -1.12193 
1 2.46524 1.0269 2.21447 
1 3.08042 2.9229 2.27 
1 2.38935 -2.66446 3.56431 
1 3.18312 -0.335842 -1.12668 
1 3.02881 -3.05759 -1.52761 
1 1.3327 -2.62451 -3.49197 
1 -0.192192 3.73465 1.90336 
1 0.705209 -3.12991 0.72948 
1 -3.17719 3.40938 0.686777 
1 -2.6481 -0.525991 -0.885268 
1 -2.18647 2.30099 -3.65203 
1 -1.87535 -3.11582 2.02412 
1 -3.57995 -3.53657 -2.02837 
1 3.66284 3.72637 -3.22176 
1 2.94531 1.61929 -2.68787 
1 0.387515 -1.67852 -1.37623 
1 1.31793 -1.36687 -1.80065 
1 -0.445163 0.893705 0.991773 
1 0.28072 3.12306 3.58161 
1 -0.157253 0.831215 -0.197857 
1 2.75223 -1.74259 0.789335 
1 -3.52236 2.827 -1.35589 
1 -0.942499 3.41295 -0.814596 
1 0.530296 2.01966 -3.54279 
1 -3.36412 -1.25371 1.52146 
1 0.760243 1.79291 -2.46499 
1 1.4726 3.7586 2.16349 
1 -1.99459 -0.116948 -0.171845 
1 3.13124 1.92443 0.407093 
1 2.40758 3.56561 0.446911 
1 -2.98685 0.801893 -1.62626 
1 0.255832 3.43278 0.435052 
1 0.531592 -1.75473 0.855407 
1 -0.598951 -1.35736 -3.50476 
1 -0.643511 -1.99456 -1.45449 
1 -1.6146 3.19337 -3.59932 
1 1.06687 1.54317 -1.38414 
1 3.01835 1.69797 -0.656231 
1 1.08576 -1.6141 -3.6571 
1 -2.84297 2.88362 3.23825 
1 1.6035 1.66815 2.64136 
1 0.568766 1.20795 2.42107 
1 -1.2431 -1.31135 -0.898065 
1 -0.503983 2.92996 1.09961 
1 -2.30852 -2.08923 2.17567 
1 1.8807 0.672012 0.0459551 
1 -1.04012 0.295567 -2.0016 
1 1.71097 -0.236869 2.82594 
1 -1.91945 1.60712 0.850772 
1 3.12997 -3.47302 2.23241 
1 0.881982 -0.746388 3.22071 
1 -1.1971 2.37369 -0.606655 
1 -0.24952 1.44606 -3.13394 
1 -3.37416 -3.01461 0.538349 
1 3.12925 0.667546 2.94709 
1 1.86341 -0.191384 -2.4731 
1 -2.72655 -3.32361 -0.390571 
1 1.04136 -0.908766 -0.864256 
1 -0.936667 -2.78919 1.62824 
1 -1.7379 -2.23246 -1.7159 
1 -2.06554 -1.43781 -2.37676 
1 2.91038 -3.56239 -2.45603 
1 -2.66319 3.18282 -3.17677 
1 3.43553 0.0441247 -0.108498 
1 -3.20043 -1.84099 -1.5872 
1 0.660055 3.11939 2.47667 
1 3.31395 -3.61754 0.02462 
1 2.90887 0.914807 0.130425 
1 1.55749 -1.51895 -0.177864 
1 3.33274 2.93427 0.502528 
1 -1.57503 0.583406 1.00635 
1 -1.26978 -1.08499 1.05193 
1 -1.97293 0.8238 -1.94973 
1 -3.70659 -1.26741 0.243295 
1 1.53348 0.0438193 -0.726171 
1 0.159706 -2.75606 -1.81405 
1 -0.511166 2.91816 -1.91468 
1 2.31917 -2.01767 2.71783 
1 -1.5849 -0.335681 -1.15354 
1 -0.683991 0.302491 -0.992649 
1 2.04281 -3.29098 -1.8658 
1 2.06447 -1.57002 -1.09996 
1 0.164328 -2.68775 1.563 
1 3.61698 -3.71689 -0.956329 
1 -2.93758 2.15001 -2.89519 
1 -1.50893 1.24952 1.81284 
1 3.45018 -0.989166 -2.90628 
1 1.87093 0.919402 1.3084 
1 0.0201907 0.015013 -1.84591 
1 -1.74516 -0.26513 1.62863 
1 -3.42465 -3.0208 2.66329 
1 -0.867254 0.39382 1.84781 
1 -0.286965 0.458228 2.73114 
1 -1.37724 -2.42095 -0.731793 
1 -0.766073 -2.33195 -3.17951 
1 -3.72574 -2.07681 0.96249 
1 2.17848 -2.97798 1.06109 
1 1.71265 -0.516447 0.210663 
1 0.574235 3.11906 1.39539 
1 -0.160264 2.68673 -0.95169 
1 2.53405 0.483955 -0.815038 
1 -3.4986 -2.68331 3.65844 
1 0.619931 -3.06104 -2.77421 
1 -1.08094 -2.56124 0.347863 
1 -0.310175 -3.56113 -2.31205 
1 -1.8523 0.296794 3.51329 
1 -2.33774 -0.494613 -1.87162 
1 -3.43333 -2.77919 -1.15981 
1 1.34337 2.78664 0.56099 
1 -3.62767 -1.88171 -3.21922 
1 -2.01122 3.2714 -0.750135 
2 2.46967 2.60958 -2.14639 
2 3.7006 1.30489 0.61662 
2 1.28959 1.4035 1.85391 
2 -1.87418 0.0763113 -2.41675 
2 2.79788 -1.11473 -1.27376 
2 0.974745 3.36746 -1.04592 
2 1.34151 1.11661 0.597158 
2 0.0857755 -0.552186 0.950131 
2 1.20631 -1.26288 0.56382 
2 -1.68916 0.456507 2.17426 
2 -1.45256 3.05233 -0.130064 
2 2.52241 0.0128769 -0.0546041 
2 -2.99158 2.60345 0.320379 
2 -1.02391 -3.44552 2.26464 
2 -1.41027 2.27483 3.41996 
2 -3.26375 2.26768 -1.99632 
2 -3.48144 -0.234235 -0.742895 
2 -3.22688 0.352044 1.37702 
2 3.19611 1.49884 3.24725 
2 -1.7338 -3.0519 -2.06351 
2 -0.727097 2.29532 2.6541 
2 3.31098 -2.03203 0.155453 
2 -2.59079 0.991494 0.940794 
2 -3.04668 1.31223 2.24974 
2 3.32162 0.388927 0.75003 
2 1.38889 -2.9113 -2.32922 
2 1.24879 3.15901 -2.31654 
2 3.61991 2.21968 -2.7958 
2 1.1912 -1.76523 -0.991524 
2 -1.27125 -0.928107 -3.02574 
2 2.51995 -3.13847 -0.0264825 
2 -1.81663 3.39258 2.1431 
2 1.10878 3.60875 0.294183 
2 1.01359 0.571863 -1.24265 
2 2.76154 -2.82792 2.76691 
2 0.885518 1.64976 3.16944 
2 3.37344 -1.18066 1.04385 
2 3.12773 -0.778343 -3.72467 
2 -0.173336 -2.734 -2.67306 
2 -1.15536 1.24776 0.600109 
2 0.583655 -1.52372 -2.92128 
2 2.78518 -2.68617 -2.29572 
2 -1.58914 -0.245861 0.656164 
2 0.356563 -0.694507 -1.39603 
2 -1.01794 -1.6642 0.443897 
2 -0.7866 2.22492 -1.37414 
2 -2.89639 -0.788729 0.92698 
2 -1.72674 3.14359 1.01296 
2 2.28505 2.97595 -0.861618 
2 -0.907014 -2.07384 3.42935 
2 -1.00833 -3.71127 3.68839 
2 2.41515 0.0308263 -3.11775 
2 2.31006 1.47535 -3.28073 
2 0.636413 2.30509 -1.09333 
2 -0.0124373 3.40538 -0.437367 
2 -1.12988 1.15362 -1.76499 
2 1.78941 -3.30554 3.62464 
2 -3.07077 2.11089 3.60845 
2 -0.265389 -2.87751 2.32912 
2 -2.42708 -1.4249 3.21669 
2 3.66895 -1.99371 -0.920653 
2 -2.24203 3.53219 3.3243 
2 -0.263121 2.37257 -3.59921 
2 0.665932 -3.10337 -1.1721 
2 -2.54147 0.0959126 -3.39477 
2 1.92719 1.58222 -1.6511 
2 -0.81933 -0.544059 -0.767552 
2 3.69792 0.601571 3.59742 
2 1.4564 0.559654 -2.60485 
2 -2.74308 1.0606 -2.47563 
2 -2.72779 -2.8847 2.14817 
2 3.76891 -1.44987 2.51367 
2 0.851764 -2.37266 0.290947 
2 -3.64394 -1.67498 -2.37396 
2 2.19002 0.497876 2.88054 
2 -2.01106 3.4249 -1.63748 
2 -0.0582903 0.837452 1.85406 
2 -3.11495 -0.310798 2.76425 
2 0.995519 0.115391 -0.0164091 
2 0.664058 -3.47832 1.61849 
2 3.10633 2.99823 1.36048 
2 -1.43805 -1.39095 -1.72887 
2 -2.37435 0.210278 -1.33223 
2 -1.95003 -0.953301 -0.486634 
2 -3.01208 -0.996932 -1.5394 
2 -0.156275 3.0684 2.74922 
2 0.502172 -1.42967 2.38336 
2 2.05076 2.1494 3.24466 
2 2.39495 2.62911 1.85201 
2 2.36251 -1.36249 0.0945564 
2 -2.58579 -3.356 0.665934 
2 0.760298 -2.32384 3.32696 
2 1.76261 -2.04791 3.42599 
2 3.26263 -0.779952 -0.349643 
2 -3.63816 -0.289211 -2.49475 
2 2.51712 0.377484 1.64385 
2 1.57331 -2.26427 2.25378 
2 2.81825 0.348258 -1.65599 
2 1.00107 0.0368279 1.73577 
2 -3.56534 -3.08993 -0.340498 
