ITEM: TIMESTEP
184
ITEM: NUMBER OF ATOMS
500
ITEM: BOX BOUNDS xy xz yz pp pp pp
-3.7345 3.75691 0.022407
-3.7345 3.7345 0
-3.7345 3.7345 0
ITEM: ATOMS type xu yu zu 
1 -2.85924 -2.09188 -2.57176 
1 -3.05387 -3.09749 -2.89795 
1 -2.4598 -2.35889 -3.57429 
1 -2.16735 -3.36684 -3.46733 
1 -1.83893 -2.52958 -2.74674 
1 -0.915024 -2.70313 -2.19116 
2 -1.72892 -3.04782 -2.06044 
1 -0.770205 -2.34852 -3.17013 
1 0.279012 -2.23973 -3.35834 
1 -0.305971 -3.28362 -3.38487 
2 -0.170612 -2.73477 -2.66504 
1 0.620127 -3.06041 -2.7738 
1 -3.25758 -0.411211 -3.31175 
1 -3.08791 -1.00744 -2.41996 
1 -2.72689 -1.37049 -3.36984 
1 -2.35341 -0.501942 -1.87604 
1 -2.16023 -0.55613 -2.99666 
1 -2.07447 -1.44434 -2.3954 
1 -1.03275 -1.61292 -2.46269 
1 -1.6338 -1.68726 -3.39565 
2 -1.28791 -0.93517 -3.03469 
1 -1.40314 -0.652767 -2.20783 
1 -0.0289551 -1.89602 -2.39267 
1 0.335219 -0.827789 -3.35306 
2 0.574116 -1.51716 -2.9098 
1 -0.480697 -0.643635 -2.69698 
1 0.426689 -0.945537 -2.22822 
1 -0.597425 -1.36373 -3.48426 
1 -2.64242 -2.84139 -1.87685 
1 -3.44003 -2.78225 -1.16092 
1 -2.72923 -3.33124 -0.372001 
1 -2.48318 -2.35967 -0.859784 
1 -3.3704 -2.23501 -0.180319 
2 -3.56689 -3.09191 -0.343646 
1 -1.64296 -3.33017 -0.211474 
1 -1.73616 -2.22911 -1.71023 
1 -1.90458 -3.2415 -1.22581 
1 -1.39761 -2.42007 -0.718501 
1 -0.742866 -3.08419 -1.21625 
1 -0.651215 -1.99272 -1.44254 
1 0.157372 -2.75184 -1.80514 
1 0.0989261 -2.57707 -0.74326 
1 -0.47187 -3.34064 -0.176284 
1 0.625969 -3.46925 -0.353675 
2 0.665369 -3.10141 -1.16393 
1 -3.2146 -1.84344 -1.58491 
1 -3.58113 -1.12702 -0.837009 
1 -3.37605 -0.201287 -1.6239 
2 -3.03282 -0.998165 -1.53749 
1 -2.66319 -0.531719 -0.887904 
1 -2.70844 -1.41978 -0.311622 
2 -3.49584 -0.242092 -0.740764 
1 -2.24294 -1.39442 -1.2986 
2 -1.4493 -1.38526 -1.7315 
1 -1.60282 -0.339106 -1.15614 
2 -1.96258 -0.947726 -0.488948 
1 -1.25707 -1.31238 -0.896018 
2 -0.832753 -0.539782 -0.778812 
1 -0.593599 -1.86481 -0.299986 
1 -0.548179 -0.913097 -1.63451 
1 0.379322 -1.68328 -1.37421 
1 -0.0972063 -0.999667 -0.690612 
2 0.340799 -0.69526 -1.39189 
2 -3.66115 -1.6813 -2.36269 
1 -2.02402 -0.108168 -0.175535 
2 -3.65274 -0.293997 -2.48781 
1 -1.26254 -3.44162 -2.9116 
1 -3.57553 -3.54317 -2.02424 
1 -2.23552 -3.66661 -2.41544 
1 -0.355202 -0.198948 -0.0860982 
1 0.506556 -1.71402 -0.238546 
1 -0.302031 -3.56113 -2.30677 
1 0.804807 -0.0632797 -2.75273 
1 0.941622 -3.56088 -1.89452 
1 -3.64944 -1.88433 -3.20714 
1 1.06972 -0.215191 -1.69431 
1 1.08518 -1.60238 -3.64094 
1 1.08717 -2.10729 -2.5576 
1 1.02581 -0.910125 -0.85784 
1 1.16799 -2.48307 -1.55411 
2 1.17919 -1.76789 -0.984951 
1 1.1726 -2.4928 -0.499218 
1 1.3281 -2.62075 -3.47991 
1 1.34883 -1.04699 -2.79954 
1 1.30988 -1.36302 -1.79065 
1 1.36666 -3.70177 -3.1689 
2 1.39248 -2.90577 -2.332 
1 1.46968 -3.37745 -0.974237 
1 1.53653 -0.27406 -3.53874 
1 1.54168 -1.52874 -0.175993 
1 0.433031 -0.0132407 -0.785677 
1 -1.25867 -0.00191493 -3.07929 
1 -1.73515 -1.72103 -0.0208096 
1 1.85098 -0.179405 -2.46809 
1 -3.40959 -3.24312 1.6405 
1 -3.39279 -3.01892 0.536476 
1 -2.6427 -2.65018 1.26593 
2 -2.60148 -3.36654 0.614417 
1 -2.35281 -2.55776 0.220522 
1 -1.78876 -3.17752 0.892714 
1 -1.08968 -2.5811 0.362429 
1 -0.981853 -2.78053 1.56333 
1 -1.74963 -2.06159 1.03157 
1 -0.0353323 -2.47886 0.357468 
1 0.145114 -2.68504 1.57937 
1 -0.375877 -3.34671 0.922395 
2 0.628939 -3.49648 1.57009 
1 0.712584 -3.11471 0.72696 
1 0.523603 -1.71349 0.838116 
2 0.83612 -2.35192 0.289681 
1 -2.7922 -1.71051 0.719437 
2 -2.91279 -0.780917 0.92086 
1 -3.38321 -1.24455 1.50832 
1 -2.27744 -1.20834 1.53422 
1 -2.89619 -0.339824 1.73011 
1 -2.16738 -0.908355 0.481355 
2 -1.01866 -1.69258 0.464011 
1 -1.7566 -0.263826 1.62174 
1 -1.28604 -1.08826 1.04179 
2 -1.60561 -0.235419 0.649222 
1 -0.54001 -1.90432 1.17178 
1 -0.744602 -0.174555 0.922081 
1 -0.310561 -1.15083 0.444967 
1 0.110458 -1.15386 1.64337 
2 0.0718554 -0.564925 0.957531 
1 0.621356 -0.699324 0.130304 
1 -3.70507 -0.365258 0.949077 
1 0.0954733 -0.0496202 1.69327 
1 -3.08383 -0.436602 0.0726783 
1 -3.72036 -1.27548 0.254017 
1 1.11561 -1.69967 1.7182 
1 0.923574 -0.668536 1.14797 
2 1.21364 -1.2456 0.563745 
1 1.2167 -2.80232 1.65115 
1 1.53252 -2.11333 0.76004 
1 -1.21703 -0.772211 0.0118137 
1 1.63368 -3.17301 0.144696 
1 1.69984 -0.525805 0.211488 
1 1.82169 -0.188074 1.64506 
1 -3.54212 1.48957 -2.35037 
1 -3.36344 0.730848 -3.13268 
2 -2.75728 1.06049 -2.479 
1 -2.8359 0.151305 -2.48283 
1 -2.12494 0.726399 -3.00916 
1 -2.591 1.73876 -1.90422 
1 -2.93791 0.430269 -0.611488 
1 -3.00182 0.808445 -1.62655 
1 -2.60848 1.45282 -0.696016 
2 -2.39935 0.204881 -1.34119 
1 -3.52602 1.72753 -1.27878 
1 -3.6115 1.18088 -0.267538 
1 -2.68622 1.35149 -3.66338 
1 -1.98834 0.823349 -1.95437 
1 -1.94676 1.78358 -2.73496 
2 -1.8921 0.0742615 -2.41947 
1 -1.79049 0.690277 -0.88949 
1 -1.70419 1.68728 -1.31239 
1 -1.54639 1.48799 -0.187217 
1 -1.16484 1.04678 -2.76003 
2 -1.14491 1.14894 -1.76273 
1 -1.05609 0.292484 -2.00718 
1 -0.72758 1.43629 -0.973254 
1 -0.706071 0.310542 -0.996912 
1 -0.314656 1.06521 -2.1148 
1 -0.261291 1.44477 -3.13479 
2 -2.56887 0.101778 -3.39368 
1 -0.177034 0.83406 -0.198285 
1 -0.179156 0.364324 -2.92013 
1 0.188895 0.934891 -1.20031 
1 0.259895 1.7949 -0.496973 
1 0.746841 1.79244 -2.4692 
1 0.765443 0.777551 -2.09008 
1 0.83094 0.971828 -3.17189 
1 0.933881 0.912531 -0.415938 
2 1.00171 0.571802 -1.24315 
2 0.962752 0.107552 -0.0258034 
1 1.05203 1.54417 -1.38796 
2 1.43669 0.563812 -2.61245 
1 1.51964 0.041965 -0.722296 
1 1.52155 1.72121 -3.62011 
1 0.00469769 0.0148698 -1.84452 
1 1.74013 1.37258 -2.51279 
1 1.7907 0.680975 -1.66251 
2 -3.24364 0.366902 1.37859 
2 -2.61302 1.00402 0.941665 
1 -3.3554 1.24748 1.37336 
1 -2.93395 1.65506 0.418286 
1 -3.31679 0.563915 0.52438 
1 -2.44917 0.660985 1.71682 
1 -2.46361 1.74762 1.75422 
1 -2.29079 0.838438 0.154208 
1 -1.93221 1.61118 0.840869 
1 -1.58877 0.590004 1.00338 
1 -1.52289 1.25577 1.81127 
2 -1.16958 1.24753 0.586671 
1 -0.883053 0.39671 1.84339 
1 -2.47827 0.0304524 0.844448 
1 -0.569466 1.76545 0.19823 
1 -1.16706 0.48945 0.0472475 
1 -0.463695 0.89086 0.981059 
1 0.142359 1.66906 1.45163 
1 0.285122 0.218498 0.622608 
1 0.467399 1.27859 0.498316 
1 0.742953 0.814013 1.44323 
2 0.981875 0.0304881 1.74856 
1 1.30061 0.230009 0.784944 
2 1.33075 1.11905 0.591662 
1 1.8503 0.911838 1.30745 
1 1.87193 0.680306 0.0385727 
1 1.89282 0.701258 -3.36158 
2 1.91195 1.58169 -1.6566 
1 1.9284 -1.11412 1.07255 
1 1.93917 1.41578 -0.767014 
1 -3.732 -2.08982 0.977253 
2 3.66061 -1.99881 -0.912396 
1 3.15588 -2.76437 -3.15181 
2 2.78129 -2.69115 -2.28724 
2 2.51514 -3.13881 -0.0362906 
2 3.10993 -0.772309 -3.71779 
1 2.50213 -3.65732 -0.746056 
1 2.41654 -0.839275 -3.125 
1 3.4291 -0.990779 -2.89896 
1 2.0079 -1.86105 -3.14429 
1 2.90262 -1.67444 -3.71192 
1 2.04328 -3.29284 -1.86864 
1 3.15133 -2.66546 -0.515679 
1 2.05628 -1.58077 -1.0946 
1 2.06069 -2.21539 -2.04689 
1 3.49029 -1.09063 -1.81884 
1 2.11525 -2.91302 -2.85646 
1 3.16893 -0.337083 -1.12338 
1 2.18901 -2.61633 -1.01535 
2 3.25043 -0.784896 -0.346499 
2 2.79241 -1.12433 -1.26198 
1 3.0083 -1.99361 -1.51343 
1 2.91746 -3.55876 -2.4569 
1 2.16025 -0.330218 -1.47855 
1 3.02821 -3.06495 -1.52079 
1 2.51184 -3.69021 -3.44331 
1 2.91921 -0.312284 -2.24027 
1 2.97216 -1.60058 -0.498095 
1 2.93678 -1.87278 -2.59754 
1 2.34254 -1.18322 -2.07522 
1 3.68221 -2.53721 -2.22073 
1 2.37647 -0.727097 -0.540241 
1 3.62217 -3.72494 -0.954577 
1 2.27036 -2.27785 -0.00927014 
2 3.34975 -1.17089 1.04667 
2 3.30688 -2.04717 0.165726 
1 3.30079 -3.60867 0.0182298 
1 3.23827 -3.65047 1.11123 
1 2.82031 -0.597236 1.47617 
1 2.7447 -1.74667 0.793827 
1 2.15467 -2.97886 1.0811 
1 3.09215 -2.60054 1.66316 
1 2.84097 -0.724159 0.423786 
1 2.15015 -2.01233 1.64473 
1 3.03257 -2.76113 0.568418 
2 2.3433 -1.36557 0.103903 
2 2.50688 0.00982098 -0.0620682 
2 2.29866 1.4783 -3.28911 
1 2.96853 0.933622 -3.48568 
1 2.92932 1.62718 -2.6922 
1 3.5531 0.522802 -2.20775 
1 3.4206 0.0404674 -0.109066 
1 2.76942 1.26358 -1.64427 
2 2.80354 0.351264 -1.65723 
1 3.53363 0.653139 -1.12463 
1 2.52007 0.485704 -0.818465 
1 3.00219 1.69279 -0.656791 
1 2.52649 0.64795 -2.49454 
2 2.40028 0.035511 -3.11821 
1 3.72834 1.6639 -3.47336 
1 3.2729 0.003115 -3.19142 
1 3.37956 0.333426 1.65601 
2 3.66728 1.28603 0.610566 
1 2.89971 0.911685 0.127212 
1 2.91933 1.12546 1.16952 
1 2.1058 1.60431 0.561089 
1 2.43686 0.171154 0.79608 
2 3.29989 0.382612 0.74998 
2 2.50438 0.372794 1.6341 
1 -2.9502 2.15263 -2.90161 
1 -2.67297 3.18379 -3.1802 
1 -2.53139 2.81641 -2.09603 
2 -3.27533 2.26773 -2.0074 
1 -3.07416 3.15469 -0.393664 
1 -3.5233 2.83364 -1.37253 
1 -2.58241 2.43708 -1.10209 
1 -3.54313 2.22932 -0.283474 
1 -2.02247 3.26501 -0.756031 
1 -3.51778 2.9793 -2.47038 
1 -2.19736 2.30332 -3.65975 
1 -2.24262 2.35179 -0.0959397 
1 -3.6308 2.72868 -3.51762 
1 -2.80828 3.65932 -1.35164 
2 -2.02742 3.42529 -1.64024 
2 -1.45879 3.06261 -0.134523 
1 -1.62339 3.19817 -3.61052 
1 -1.55532 2.92354 -2.5881 
1 -1.54626 2.70438 -1.55446 
1 -1.21543 2.376 -0.607341 
1 -1.07588 2.20885 -3.23781 
1 -0.954035 3.41107 -0.820432 
1 -0.995586 1.94329 -2.17474 
2 -0.802245 2.22902 -1.37497 
1 -0.605606 3.19539 -3.13129 
1 -0.526065 2.91902 -1.9128 
2 -0.275943 2.37797 -3.59916 
1 -0.173891 2.68395 -0.948888 
1 -0.08035 2.39207 -2.70566 
1 0.0255656 1.94473 -1.65772 
2 -0.0206719 3.40203 -0.433897 
1 0.10601 3.69558 -1.258 
1 0.450436 3.34264 -2.78146 
1 0.516476 2.02193 -3.54546 
1 0.620139 2.86999 -1.76114 
2 0.624436 2.30667 -1.09667 
1 0.675945 2.84909 -0.34944 
2 0.947294 3.37178 -1.04183 
1 -1.23443 3.70332 -1.87871 
1 1.1888 2.66945 -3.0618 
2 1.23036 3.17002 -2.32112 
1 1.23515 1.86764 -0.00853236 
1 1.46675 2.41279 -0.911769 
1 1.55464 2.33501 -2.02082 
1 1.64568 3.29863 -0.322863 
1 1.72336 3.22876 -1.51601 
1 -2.4478 2.57304 0.994396 
1 -3.5049 3.1675 1.66805 
1 -3.21685 3.40123 0.656835 
2 -2.99743 2.6009 0.307098 
1 -3.50239 2.31851 0.990249 
1 -2.43453 3.62663 1.40001 
1 -2.19959 3.37113 0.29657 
2 -1.76498 3.15348 1.02002 
1 -1.57835 2.55822 1.6711 
1 -1.39994 2.49721 0.542289 
1 -1.23865 3.6281 1.51591 
1 -1.12227 3.55252 0.481586 
1 -0.874756 1.86752 1.23423 
1 -0.518679 2.9284 1.09963 
1 -0.508802 2.83042 0.0267893 
1 0.255993 3.42256 0.44321 
1 0.309214 2.34051 0.578024 
1 0.562897 3.07951 1.39685 
2 1.10097 3.61179 0.300941 
1 1.16849 1.84415 1.09563 
1 1.32745 2.78515 0.564634 
1 1.45054 3.70113 1.11034 
1 1.5528 2.78479 1.65225 
1 2.79006 2.10815 -3.72167 
1 2.12957 2.26049 -2.90449 
1 2.98066 2.86928 -2.89552 
2 2.2569 2.96778 -0.866762 
1 2.41267 2.25529 -1.34503 
1 2.25261 2.40413 -0.153276 
1 3.11039 2.85081 -0.632743 
1 3.27835 2.28565 -1.96567 
1 2.82965 3.23721 -1.629 
2 2.45942 2.59208 -2.15728 
2 3.60652 2.22137 -2.80043 
1 2.06797 3.2857 -2.53189 
1 3.64442 3.72234 -3.22404 
1 3.11429 1.91749 0.411288 
1 2.39557 3.48272 1.63042 
2 3.1252 2.97189 1.34302 
1 3.28577 2.93261 0.462439 
1 2.05145 1.84924 1.69348 
1 2.36078 2.609 0.946056 
1 2.37572 3.57146 0.458966 
1 3.0851 2.10677 1.54879 
2 -0.0738113 0.83591 1.84629 
1 -0.830392 -0.740932 1.93154 
1 -3.38764 -2.16561 2.02669 
2 -2.73346 -2.89712 2.13434 
1 -3.41995 -3.00742 2.66764 
1 -2.31073 -2.10758 2.1419 
1 -2.33886 -2.89617 2.98864 
1 -2.9281 -1.97955 3.02602 
1 -1.88605 -3.13156 2.01441 
1 -1.07374 -2.66341 2.59488 
2 -0.987774 -3.45809 2.24598 
2 -0.964525 -2.02964 3.48501 
1 -1.73951 -2.00313 3.04897 
1 0.539982 -3.32777 2.46696 
1 -0.255756 -2.53502 3.23764 
2 -0.215869 -2.85587 2.38553 
1 0.621397 -2.315 2.47879 
1 -0.436264 -3.56904 2.9716 
2 0.775936 -2.29273 3.34618 
1 -3.0722 -3.59866 3.51816 
1 -2.9093 -1.10388 2.46976 
1 -2.58023 -0.603054 3.38643 
2 -3.13722 -0.297948 2.74456 
1 -3.58367 -1.21708 3.40534 
2 -2.19527 -1.37517 3.3992 
1 -1.22412 -0.161639 2.73472 
1 -1.31457 -1.74619 1.96952 
1 -1.53517 -0.751584 3.59691 
1 -1.86107 -1.03345 2.57391 
1 -0.874611 -1.31202 2.93951 
1 -0.313936 -1.93342 2.26848 
1 -0.512283 -0.353033 3.58592 
1 0.189609 -1.57909 3.22411 
1 -0.0257555 -0.684944 2.63225 
2 0.492646 -1.43704 2.40069 
1 0.569609 -3.17192 3.52289 
1 -1.53638 -3.62974 2.9244 
1 -1.32912 -2.85947 3.6083 
1 -2.30461 -0.0491053 2.54854 
1 0.871677 -0.749009 3.22308 
1 1.0151 -0.755605 2.17561 
1 1.305 -1.62034 2.79039 
1 1.46772 -2.79895 2.95637 
1 -3.46378 -2.66033 3.65143 
2 1.56553 -2.26695 2.26312 
2 -0.985215 -3.7141 3.67626 
1 1.69587 -0.234621 2.82982 
2 1.7637 -2.04034 3.44043 
2 1.7929 -3.29696 3.643 
1 -2.96573 0.372046 3.35772 
1 -3.43861 1.26182 3.06631 
1 -3.30459 0.470146 2.33962 
2 -3.07055 1.32914 2.24858 
1 -2.32702 0.995549 2.7223 
1 -1.87664 0.293928 3.50938 
1 -1.63259 1.39099 3.70432 
2 -1.70532 0.457624 2.16884 
1 -1.26851 0.899597 2.79793 
1 -0.779909 0.69316 3.71356 
1 -0.704023 1.74184 3.34735 
1 -0.520026 1.49278 2.28591 
1 -0.301343 0.453352 2.72842 
1 0.185842 1.14282 3.40482 
1 0.465243 0.148267 3.67388 
1 0.553017 1.19843 2.41869 
1 0.675232 0.137656 2.60859 
2 0.869512 1.65221 3.16302 
1 1.25206 0.817443 3.26143 
2 1.27438 1.39786 1.8525 
1 1.49659 0.635866 2.24314 
1 1.59086 1.66655 2.63971 
1 3.38442 -2.15249 2.88655 
1 2.00643 -1.13875 3.40806 
1 3.641 -0.560917 2.21764 
1 2.53806 -0.0938897 3.48882 
1 3.60499 -0.216834 3.24706 
1 2.08165 -1.07771 2.2057 
1 2.64854 -0.091118 2.38701 
1 3.12204 -3.4779 2.24249 
1 2.17438 -2.93899 2.14893 
2 2.7768 -2.81039 2.77008 
1 2.28059 -3.61045 2.95985 
1 2.32113 -2.00841 2.72494 
2 3.73947 -1.41916 2.51727 
1 2.39195 -2.65626 3.569 
1 2.95266 -1.05009 2.87896 
1 3.11486 -1.5455 1.89101 
1 3.25001 -3.31978 3.32077 
1 3.11914 0.66498 2.94592 
2 3.18327 1.49932 3.24213 
1 3.45575 1.3155 2.18819 
2 3.68419 0.596751 3.59801 
2 2.17527 0.499661 2.88222 
1 2.29403 1.267 3.28245 
1 2.45554 1.01981 2.21013 
1 -3.41684 2.16237 2.05398 
1 -2.65541 1.96833 2.82023 
1 -2.54926 2.77117 2.06526 
1 -2.85636 2.89019 3.23542 
1 -3.60506 3.39402 2.74039 
2 -2.25359 3.54779 3.30877 
1 -2.60913 3.71525 2.48711 
2 -3.0837 2.11314 3.60405 
1 -1.87116 2.85598 2.88016 
2 -1.84174 3.3891 2.13501 
1 -1.54971 1.90771 2.63218 
2 -1.41684 2.28474 3.41903 
1 -0.981372 3.10779 2.3634 
1 -0.764365 2.86904 3.34238 
2 -0.739104 2.29205 2.65549 
1 -0.181448 2.52836 2.00303 
2 -0.169821 3.07694 2.73012 
1 -0.197801 3.69523 1.90228 
1 0.139896 2.21856 2.95195 
1 0.269059 3.13319 3.57723 
1 0.655261 3.10552 2.47755 
1 0.841487 2.15251 2.09221 
1 1.1663 2.49092 3.19523 
1 1.29699 3.56534 3.23313 
1 1.49426 3.72972 2.18451 
2 2.39338 2.61683 1.85285 
1 3.6642 2.25651 3.02929 
1 2.6895 1.99565 2.618 
1 3.09265 2.9088 2.25021 
1 2.02671 2.84419 2.63327 
2 2.0393 2.15106 3.24332 
1 2.99656 3.0802 3.32573 
1 2.00624 2.9084 3.73191 
