ITEM: TIMESTEP
357
ITEM: NUMBER OF ATOMS
500
ITEM: BOX BOUNDS xy xz yz pp pp pp
-3.7345 3.75691 0.022407
-3.7345 3.7345 0
-3.7345 3.7345 0
ITEM: ATOMS type xu yu zu 
1 0.649414 -2.30348 2.43951 
1 -2.71532 -1.41255 -0.307992 
1 2.00886 -1.86475 -3.15742 
1 -0.355404 -0.202003 -0.0780035 
1 1.18572 -2.48368 -0.500845 
1 -1.55359 -3.62858 2.94497 
1 2.06001 3.29088 -2.53695 
1 -1.21969 -0.156893 2.73923 
1 2.16201 -0.332784 -1.48146 
1 -3.39139 -2.1995 1.99612 
1 1.16922 1.84799 1.09597 
1 -1.74417 -2.05304 1.02392 
1 -1.25416 -0.000879403 -3.07675 
1 2.00253 2.90177 3.73344 
1 -2.14793 -0.564878 -2.99057 
1 0.933423 0.916811 -0.415909 
1 1.01143 -0.74307 2.17193 
1 -1.26519 0.902914 2.79812 
1 -3.3739 -2.23285 -0.181941 
1 -2.78797 -1.7117 0.720649 
1 -3.54448 1.48902 -2.34386 
1 -2.23865 -1.39077 -1.28823 
1 2.04829 1.85935 1.69647 
1 -2.44435 2.57528 0.998248 
1 -2.48684 -2.35723 -3.5851 
1 1.46845 -3.37497 -0.975216 
1 -1.74298 -1.95251 3.10693 
1 -0.732194 1.42968 -0.969062 
1 0.833077 0.973346 -3.16874 
1 -2.83377 0.14803 -2.48911 
1 3.05118 -2.75586 0.55114 
1 -2.6285 -2.64146 1.28752 
1 -1.20659 -0.794732 0.0202976 
1 3.60307 -0.208029 3.2451 
1 3.27425 0.00243753 -3.19325 
1 -2.27921 0.826467 0.153842 
1 -2.93496 0.435204 -0.609262 
1 -1.84707 -1.02305 2.55684 
1 -2.30266 -0.0465305 2.55082 
1 2.78388 2.1061 -3.71595 
1 3.00806 -1.99083 -1.52327 
1 -0.463038 -3.58405 2.97974 
1 -0.0232149 -1.89918 -2.39942 
1 0.503331 -3.3091 2.51497 
1 0.80777 -0.0646795 -2.75576 
1 3.08486 2.12915 1.56044 
1 2.37992 -0.722923 -0.541112 
1 -2.45502 1.75131 1.76735 
1 2.82914 -0.609718 1.47871 
1 0.630505 -0.686328 0.124786 
1 -1.16779 1.04674 -2.75757 
1 -1.54922 2.70591 -1.54493 
1 -3.08019 -1.00186 -2.42844 
1 -0.740148 -0.172482 0.926021 
1 2.42314 -0.841999 -3.13153 
1 -1.873 2.85231 2.88461 
1 0.944258 -3.567 -1.89647 
1 2.17108 -2.94346 2.13373 
1 0.842237 2.16336 2.09547 
1 -0.860527 -1.3207 2.91559 
1 -0.508254 2.82157 0.0273651 
1 0.135648 2.21064 2.95066 
1 1.79051 0.680089 -1.65942 
1 -3.4121 2.14388 2.06659 
1 0.582333 -3.22527 3.57467 
1 -3.07924 -3.60893 3.51376 
1 -1.7051 1.68814 -1.31091 
1 -3.36775 -3.28915 1.64543 
1 -0.173214 -2.57228 3.17658 
1 -0.580452 -1.85673 -0.305266 
1 -3.52232 2.97849 -2.46123 
1 -0.709278 1.73922 3.34603 
1 1.14184 -1.67341 1.70514 
1 1.34695 -1.05454 -2.81682 
1 0.619686 -3.46216 -0.358338 
1 1.36039 -3.70617 -3.18405 
1 -1.58525 2.5666 1.68406 
1 2.50144 -3.6895 -3.4479 
1 1.55099 2.3333 -2.01515 
1 -3.05695 -3.09755 -2.89081 
1 -0.0198554 -0.679781 2.62493 
1 -1.27714 -3.45231 -2.9052 
1 1.89039 0.700586 -3.35792 
1 -1.08256 2.20883 -3.23827 
1 3.27103 2.28341 -1.96402 
1 -2.88875 -0.350764 1.73829 
1 -0.519513 1.49657 2.28591 
1 2.50331 -3.64856 -0.743567 
1 1.30451 0.225364 0.807194 
1 -3.25305 -0.407924 -3.32174 
1 -0.501273 -0.342961 3.58058 
1 -3.01715 -2.0321 2.99598 
1 2.15784 -2.01269 1.6385 
1 -1.12593 3.54713 0.474728 
1 0.676473 0.145656 2.608 
1 -2.32502 -2.87283 2.98637 
1 2.65829 -0.0941429 2.38865 
1 -0.56518 1.75878 0.212223 
1 -1.91137 -3.23965 -1.22361 
1 -2.12612 0.726051 -3.01019 
1 3.0934 -2.60397 1.64077 
1 0.521248 -1.70898 -0.225939 
1 -3.56707 -1.20352 3.39252 
1 1.25535 0.818573 3.26122 
1 -3.533 2.22728 -0.286234 
1 2.93299 1.13712 1.17341 
1 0.741804 0.824406 1.4437 
1 -0.0258148 -2.48684 0.337426 
1 0.187841 -1.58345 3.20686 
1 2.13033 2.26044 -2.89412 
1 2.96405 0.931559 -3.48371 
1 3.68387 -2.53109 -2.22617 
1 2.08715 -1.08033 2.20098 
1 0.766203 0.778192 -2.09074 
1 -1.54907 1.49506 -0.175005 
1 3.65315 -0.572819 2.22684 
1 -2.59474 1.73765 -1.89675 
1 0.271205 -2.24959 -3.37164 
1 -2.81642 3.64954 -1.35756 
1 1.54054 -0.274369 -3.54342 
1 -2.54135 -0.585207 3.40067 
1 2.9402 -1.86704 -2.60621 
1 2.27886 -2.27663 -0.017557 
1 2.2785 -3.62152 2.94061 
1 1.52054 1.72454 -3.61528 
1 2.18793 -2.61042 -1.0233 
1 1.7357 1.37201 -2.50837 
1 -2.19941 3.38954 0.305945 
1 -1.16009 0.497987 0.0500061 
1 2.9583 -1.05864 2.8758 
1 2.68723 1.99805 2.62405 
1 -0.289432 -1.15664 0.451822 
1 -1.64453 -3.31762 -0.207459 
1 -0.176462 0.364187 -2.92273 
1 -0.982105 3.11906 2.371 
1 -1.08536 -2.64011 2.64477 
1 0.108655 -2.56666 -0.754204 
1 -1.77853 0.692118 -0.885351 
1 1.92862 -1.11067 1.06121 
1 -0.876329 1.87252 1.24841 
1 -2.59465 3.72448 2.50184 
1 2.24561 2.40336 -0.154949 
1 0.435942 -0.0104182 -0.781345 
1 -2.47572 -2.35225 -0.852024 
1 -2.24217 -3.6703 -2.41032 
1 -3.54244 3.13118 1.66067 
1 2.10436 -2.91663 -2.85611 
1 2.10386 1.60457 0.556833 
1 1.46454 3.70903 1.09246 
1 -2.9181 1.64312 0.405717 
1 1.63211 -3.17517 0.142038 
1 -3.49092 2.27468 0.996528 
1 2.5391 -0.0948999 3.48786 
1 -0.831309 -0.738584 1.93777 
1 2.97651 -1.59636 -0.516566 
1 0.107958 3.69136 -1.26216 
1 -3.07733 -0.430294 0.0742275 
1 -1.86189 -2.54623 -2.7505 
1 -0.780931 2.85901 3.34845 
1 3.23477 -3.63139 1.12245 
1 2.92095 -0.31433 -2.243 
1 -0.3139 1.06607 -2.11775 
1 -2.89387 -1.11746 2.49177 
1 -3.63147 2.72787 -3.5098 
1 2.34038 -1.18195 -2.08582 
1 3.65931 2.25905 3.03488 
1 1.46117 -2.80674 2.94522 
1 2.83827 3.23861 -1.61765 
1 3.23841 -3.33338 3.31187 
1 -2.59239 2.44304 -1.09642 
1 3.11206 2.86455 -0.5995 
1 -0.182647 2.54024 2.00587 
1 3.49494 -1.0922 -1.82655 
1 2.0009 2.83853 2.62877 
1 -0.541677 -0.911394 -1.62968 
1 -2.39326 3.62058 1.41571 
1 -2.1833 -3.36964 -3.46571 
1 1.2304 1.87174 -0.00885619 
1 -3.44049 1.2638 3.062 
1 1.4605 2.41613 -0.911534 
1 0.143051 1.67929 1.45559 
1 -2.64357 -2.83585 -1.8796 
1 0.429621 -0.947112 -2.23484 
1 -3.08804 3.1674 -0.375534 
1 2.97768 2.87173 -2.89262 
1 1.16521 -2.47989 -1.55687 
1 -2.2461 2.3693 -0.0911553 
1 -2.96335 0.375172 3.36667 
1 2.52026 0.643816 -2.49063 
1 2.44678 0.172495 0.805768 
1 2.05956 -2.2128 -2.05344 
1 -3.37497 -0.204161 -1.62805 
1 1.30605 3.55298 3.21486 
1 0.0211779 1.94337 -1.65503 
1 -2.56513 2.77813 2.07507 
1 -0.307479 -1.95421 2.24752 
1 -1.2397 3.63126 1.51846 
1 -1.55129 1.9071 2.62501 
1 0.0996671 -1.15686 1.62863 
1 -2.32252 0.992409 2.72912 
1 0.103136 -0.0466645 1.68988 
1 -0.479021 -3.3312 -0.186946 
1 -0.554534 -1.92422 1.14905 
1 -0.734404 -3.08634 -1.22735 
1 0.187333 0.935364 -1.20171 
1 -3.5775 -1.12153 -0.845975 
1 3.12388 -1.5561 1.89304 
1 -3.6976 -0.370044 0.950813 
1 -1.23763 3.70281 -1.87172 
1 0.923697 -0.679055 1.14439 
1 2.99945 3.07865 3.34093 
1 -2.60471 1.45632 -0.690403 
1 -0.998205 1.94551 -2.17615 
1 -3.52793 1.72163 -1.2755 
1 1.07102 -0.212252 -1.6977 
1 0.615891 2.86512 -1.76151 
1 2.84668 -0.722166 0.424272 
1 2.76709 1.26179 -1.64044 
1 -2.53103 2.81129 -2.09486 
1 -1.74778 -1.73288 -0.0323178 
1 -1.39513 2.48211 0.54183 
1 3.72332 1.66295 -3.47242 
1 -2.64872 1.96316 2.82855 
1 -2.16069 -0.914266 0.484531 
1 -2.36165 -2.56832 0.232139 
1 0.450574 3.34236 -2.77956 
1 1.18704 2.66504 -3.05865 
1 1.31058 -1.6069 2.77803 
1 0.475052 0.149321 3.67577 
1 -0.922298 -2.70172 -2.20171 
1 2.28941 1.26713 3.28569 
1 3.45356 1.30617 2.17962 
1 2.37949 3.50224 1.64138 
1 -0.0828294 -0.994483 -0.688013 
1 -0.477649 -0.645932 -2.69856 
1 -2.44943 0.658664 1.72321 
1 1.73188 3.22836 -1.5152 
1 -1.54957 2.92112 -2.57739 
1 0.333105 -0.83122 -3.35836 
1 2.00924 -1.14279 3.40618 
1 -0.397693 -3.32867 0.910414 
1 1.83132 -0.190895 1.65145 
1 0.669904 2.85745 -0.34992 
1 0.310315 2.35257 0.587131 
1 -2.71468 -1.36443 -3.39344 
1 3.13924 -2.76331 -3.14785 
1 3.36703 -2.17353 2.86894 
1 2.35546 2.61376 0.946009 
1 -3.30658 0.455515 2.34823 
1 1.645 3.30047 -0.325164 
1 -3.33932 1.23361 1.37966 
1 -2.27173 -1.21527 1.53644 
1 -1.63923 1.39084 3.70336 
1 -1.95137 1.78193 -2.72972 
1 3.54872 0.522642 -2.20463 
1 1.9378 1.41394 -0.759668 
1 -0.33146 -3.26932 -3.39294 
1 2.90851 -1.68115 -3.72036 
1 -2.69318 1.35044 -3.65829 
1 -0.606129 3.19871 -3.13419 
1 0.293277 0.229854 0.616867 
1 -1.51044 -0.764775 3.59581 
1 1.08938 -2.11047 -2.56659 
1 -3.60081 3.38662 2.72311 
1 -3.372 0.732621 -3.12642 
1 2.40916 2.25779 -1.33922 
1 -1.39789 -0.64969 -2.20054 
1 1.15451 2.48901 3.19699 
1 1.54024 2.79858 1.64443 
1 3.38201 0.326886 1.65353 
1 1.23598 -2.77415 1.61377 
1 0.184983 1.14121 3.40797 
1 -2.47771 0.0248981 0.850198 
1 3.15286 -2.66734 -0.524452 
1 -3.61698 1.18007 -0.264334 
1 -1.35147 -2.85416 3.6344 
1 -1.31244 -1.75657 1.96818 
1 -3.31289 0.566132 0.525144 
1 0.252588 1.79779 -0.495164 
1 -2.85719 -2.08512 -2.58162 
1 1.4965 0.637846 2.2394 
1 -1.65088 -1.67627 -3.34544 
1 -0.782513 0.696147 3.71559 
1 0.463997 1.28969 0.49895 
1 -0.0839191 2.39368 -2.70709 
1 -1.76298 -3.15655 0.904086 
1 -1.02572 -1.60573 -2.45199 
1 1.54534 -2.10744 0.746907 
1 3.53482 0.65169 -1.12285 
1 2.45093 1.02836 2.21427 
1 3.05949 2.9273 2.27036 
1 2.38432 -2.66122 3.56488 
1 3.17139 -0.336863 -1.12733 
1 3.02817 -3.06 -1.52724 
1 1.32739 -2.62374 -3.49052 
1 -0.213526 3.73509 1.90301 
1 0.706188 -3.12705 0.727039 
1 -3.19947 3.4073 0.686214 
1 -2.65959 -0.526007 -0.886136 
1 -2.2057 2.30142 -3.65365 
1 -1.87548 -3.11487 2.02388 
1 -3.58192 -3.53865 -2.02588 
1 3.63915 3.72559 -3.22397 
1 2.9284 1.62046 -2.6888 
1 0.382089 -1.67725 -1.37718 
1 1.3108 -1.36197 -1.801 
1 -0.459516 0.894277 0.990207 
1 0.261106 3.11919 3.5824 
1 -0.171031 0.831777 -0.198926 
1 2.74581 -1.74532 0.79192 
1 -3.53993 2.82794 -1.35729 
1 -0.963016 3.41274 -0.81088 
1 0.513152 2.01986 -3.54288 
1 -3.37342 -1.25425 1.5212 
1 0.742444 1.79396 -2.46556 
1 1.45069 3.75789 2.16446 
1 -2.00678 -0.11726 -0.172913 
1 3.11363 1.92284 0.407069 
1 2.3856 3.56743 0.451193 
1 -3.00138 0.802894 -1.62833 
1 0.237584 3.43293 0.436298 
1 0.526381 -1.74685 0.852487 
1 -0.60975 -1.35669 -3.50477 
1 -0.646675 -1.99379 -1.45028 
1 -1.63335 3.19214 -3.5973 
1 1.05059 1.54385 -1.38466 
1 3.00185 1.69664 -0.656041 
1 1.07638 -1.61506 -3.65758 
1 -2.86393 2.88226 3.23433 
1 1.58759 1.6684 2.64151 
1 0.554125 1.20696 2.42122 
1 -1.25188 -1.3157 -0.894569 
1 -0.523014 2.93301 1.10099 
1 -2.31265 -2.08776 2.18207 
1 1.8652 0.67039 0.0474867 
1 -1.05449 0.29615 -2.00143 
1 1.69962 -0.235588 2.82528 
1 -1.93446 1.60552 0.850793 
1 3.12954 -3.46803 2.23481 
1 0.872243 -0.747096 3.22089 
1 -1.2135 2.37279 -0.60566 
1 -0.267201 1.44699 -3.13517 
1 -3.37699 -3.01624 0.540617 
1 3.11478 0.670415 2.94758 
1 1.85121 -0.190899 -2.47235 
1 -2.72798 -3.32439 -0.390986 
1 1.03232 -0.906744 -0.864193 
1 -0.936996 -2.78963 1.6268 
1 -1.73716 -2.2298 -1.71114 
1 -2.07778 -1.44125 -2.37108 
1 2.91019 -3.56157 -2.45711 
1 -2.68091 3.18207 -3.177 
1 3.42229 0.0437407 -0.109884 
1 -3.20708 -1.84172 -1.5923 
1 0.639937 3.11846 2.47841 
1 3.31292 -3.61878 0.0241446 
1 2.89384 0.91315 0.130867 
1 1.55683 -1.51528 -0.180734 
1 3.31034 2.9336 0.502554 
1 -1.58779 0.582951 1.00488 
1 -1.27885 -1.08569 1.05079 
1 -1.98792 0.823997 -1.95324 
1 -3.71595 -1.26845 0.243957 
1 1.52101 0.046305 -0.728128 
1 0.15704 -2.75537 -1.81323 
1 -0.530972 2.91832 -1.91422 
1 2.31495 -2.01463 2.71872 
1 -1.59598 -0.341089 -1.1538 
1 -0.697361 0.300899 -0.993288 
1 2.04178 -3.29089 -1.86761 
1 2.05808 -1.57341 -1.10436 
1 0.162836 -2.68301 1.55886 
1 3.61882 -3.71778 -0.955718 
1 -2.95514 2.15021 -2.89549 
1 -1.5202 1.24826 1.811 
1 3.43653 -0.98886 -2.90495 
1 1.85795 0.919199 1.30852 
1 0.00702565 0.0152761 -1.84719 
1 -1.75628 -0.266315 1.62643 
1 -3.42191 -3.0174 2.66945 
1 -0.879259 0.392792 1.84624 
1 -0.299787 0.457218 2.73029 
1 -1.38204 -2.42074 -0.726772 
1 -0.774283 -2.32964 -3.17493 
1 -3.73125 -2.07829 0.962747 
1 2.1738 -2.97358 1.06191 
1 1.70354 -0.511545 0.208841 
1 0.554621 3.11922 1.39734 
1 -0.179643 2.68644 -0.95082 
1 2.52076 0.482595 -0.814263 
1 -3.49226 -2.68706 3.66752 
1 0.617546 -3.06119 -2.77319 
1 -1.08359 -2.56143 0.349884 
1 -0.309581 -3.56111 -2.31374 
1 -1.86357 0.295158 3.51106 
1 -2.34956 -0.49542 -1.87275 
1 -3.43418 -2.77957 -1.16053 
1 1.32501 2.78819 0.561093 
1 -3.6401 -1.87801 -3.22434 
1 -2.03234 3.27205 -0.749323 
2 2.45244 2.60642 -2.14734 
2 3.68774 1.30701 0.617034 
2 1.27445 1.40413 1.85384 
2 -1.88861 0.0754782 -2.42003 
2 2.79027 -1.1169 -1.27613 
2 0.951628 3.36972 -1.04651 
2 1.32542 1.11492 0.599339 
2 0.0776068 -0.551862 0.950692 
2 1.20156 -1.25855 0.557967 
2 -1.70118 0.454913 2.17228 
2 -1.47621 3.04887 -0.12862 
2 2.50791 0.0103003 -0.0544925 
2 -3.00655 2.60326 0.31912 
2 -1.02292 -3.44609 2.26433 
2 -1.42913 2.27036 3.41924 
2 -3.28029 2.268 -1.99674 
2 -3.49364 -0.236206 -0.743038 
2 -3.2381 0.351863 1.37682 
2 3.18086 1.50111 3.24756 
2 -1.73237 -3.05079 -2.05855 
2 -0.744504 2.29362 2.65357 
2 3.30161 -2.0328 0.154484 
2 -2.6042 0.989896 0.939594 
2 -3.05938 1.31143 2.24967 
2 3.30809 0.387985 0.749666 
2 1.38715 -2.90713 -2.32782 
2 1.22873 3.16072 -2.31658 
2 3.60275 2.21954 -2.79613 
2 1.18422 -1.76287 -0.990443 
2 -1.27863 -0.926267 -3.02734 
2 2.51891 -3.13985 -0.0295998 
2 -1.83702 3.39115 2.14466 
2 1.08907 3.60909 0.293066 
2 1.00018 0.57471 -1.24363 
2 2.75757 -2.82432 2.76831 
2 0.869289 1.64909 3.16946 
2 3.36394 -1.18 1.04468 
2 3.11684 -0.775312 -3.72437 
2 -0.176522 -2.73389 -2.67395 
2 -1.16996 1.24815 0.59907 
2 0.573244 -1.52449 -2.92216 
2 2.77957 -2.68778 -2.29371 
2 -1.59946 -0.244708 0.654716 
2 0.345992 -0.693487 -1.39656 
2 -1.02438 -1.6642 0.442522 
2 -0.805255 2.22383 -1.37439 
2 -2.90788 -0.789456 0.925414 
2 -1.74837 3.14218 1.01319 
2 2.2652 2.97409 -0.86245 
2 -0.900419 -2.07714 3.42676 
2 -1.00727 -3.71271 3.68725 
2 2.40114 0.0340316 -3.11881 
2 2.29495 1.47732 -3.28305 
2 0.618967 2.30683 -1.09395 
2 -0.0324618 3.40571 -0.43684 
2 -1.14501 1.15347 -1.7648 
2 1.78725 -3.30381 3.62644 
2 -3.08958 2.11004 3.60601 
2 -0.264446 -2.87735 2.32508 
2 -2.42211 -1.42034 3.21055 
2 3.66505 -1.99611 -0.922162 
2 -2.26168 3.52836 3.32639 
2 -0.281227 2.37118 -3.59979 
2 0.664446 -3.1041 -1.1725 
2 -2.55067 0.088935 -3.39754 
2 1.91086 1.58115 -1.65081 
2 -0.828835 -0.546979 -0.76968 
2 3.68443 0.605594 3.59733 
2 1.4422 0.558918 -2.60481 
2 -2.75776 1.06127 -2.47815 
2 -2.72739 -2.88474 2.15107 
2 3.75949 -1.44887 2.51419 
2 0.846775 -2.36779 0.290243 
2 -3.6544 -1.67697 -2.37657 
2 2.17767 0.499235 2.88035 
2 -2.03035 3.42471 -1.6355 
2 -0.0719747 0.837532 1.85277 
2 -3.12676 -0.310727 2.76587 
2 0.986574 0.118516 -0.015848 
2 0.660473 -3.47634 1.61751 
2 3.08613 2.99984 1.36074 
2 -1.44864 -1.38397 -1.72559 
2 -2.38983 0.210194 -1.33521 
2 -1.95962 -0.953549 -0.487496 
2 -3.02268 -0.996976 -1.54203 
2 -0.176197 3.06592 2.75002 
2 0.493888 -1.43051 2.38487 
2 2.03437 2.14992 3.24437 
2 2.37608 2.63097 1.8516 
2 2.36201 -1.36747 0.0941627 
2 -2.5884 -3.35786 0.667956 
2 0.753526 -2.32638 3.32761 
2 1.75591 -2.04632 3.42626 
2 3.25338 -0.782241 -0.349803 
2 -3.65001 -0.290488 -2.49388 
2 2.50623 0.379265 1.64338 
2 1.5678 -2.2637 2.2558 
2 2.80213 0.348592 -1.65579 
2 0.989816 0.0366607 1.7339 
2 -3.56654 -3.09017 -0.340291 
