ITEM: TIMESTEP
358
ITEM: NUMBER OF ATOMS
500
ITEM: BOX BOUNDS xy xz yz pp pp pp
-3.7345 3.76438 0.029876
-3.7345 3.7345 0
-3.7345 3.7345 0
ITEM: ATOMS type xu yu zu 
1 -2.85554 -2.08512 -2.58162 
1 -3.05632 -3.09755 -2.89081 
1 -2.48546 -2.35723 -3.5851 
1 -2.18293 -3.36964 -3.46571 
1 -1.86071 -2.54623 -2.7505 
1 -0.921265 -2.70172 -2.20171 
2 -1.73169 -3.05079 -2.05855 
1 -0.772878 -2.32964 -3.17493 
1 0.27269 -2.24959 -3.37164 
1 -0.330995 -3.26932 -3.39294 
2 -0.175522 -2.73389 -2.67395 
1 0.61822 -3.06119 -2.77319 
1 -3.24973 -0.407924 -3.32174 
1 -3.07746 -1.00186 -2.42844 
1 -2.71231 -1.36443 -3.39344 
1 -2.34632 -0.49542 -1.87275 
1 -2.14476 -0.564878 -2.99057 
1 -2.07549 -1.44125 -2.37108 
1 -1.02359 -1.60573 -2.45199 
1 -1.64882 -1.67627 -3.34544 
2 -1.27583 -0.926267 -3.02734 
1 -1.39481 -0.64969 -2.20054 
1 -0.0213796 -1.89918 -2.39942 
1 0.336009 -0.83122 -3.35836 
2 0.575454 -1.52449 -2.92216 
1 -0.47456 -0.645932 -2.69856 
1 0.432408 -0.947112 -2.23484 
1 -0.607372 -1.35669 -3.50477 
1 -2.64267 -2.83585 -1.8796 
1 -3.43323 -2.77957 -1.16053 
1 -2.72757 -3.32439 -0.390986 
1 -2.47433 -2.35225 -0.852024 
1 -3.3724 -2.23285 -0.181941 
2 -3.56589 -3.09017 -0.340291 
1 -1.64411 -3.31762 -0.207459 
1 -1.73566 -2.2298 -1.71114 
1 -1.91088 -3.23965 -1.22361 
1 -1.38073 -2.42074 -0.726772 
1 -0.733756 -3.08634 -1.22735 
1 -0.644934 -1.99379 -1.45028 
1 0.158019 -2.75537 -1.81323 
1 0.109822 -2.56666 -0.754204 
1 -0.478618 -3.3312 -0.186946 
1 0.619959 -3.46216 -0.358338 
2 0.665077 -3.1041 -1.1725 
1 -3.20519 -1.84172 -1.5923 
1 -3.57489 -1.12153 -0.845975 
1 -3.37144 -0.204161 -1.62805 
2 -3.01994 -0.996976 -1.54203 
1 -2.65638 -0.526007 -0.886136 
1 -2.713 -1.41255 -0.307992 
2 -3.49014 -0.236206 -0.743038 
1 -2.2363 -1.39077 -1.28823 
2 -1.44629 -1.38397 -1.72559 
1 -1.59259 -0.341089 -1.1538 
2 -1.95684 -0.953549 -0.487496 
1 -1.24946 -1.3157 -0.894569 
2 -0.825647 -0.546979 -0.76968 
1 -0.578574 -1.85673 -0.305266 
1 -0.538854 -0.911394 -1.62968 
1 0.384146 -1.67725 -1.37718 
1 -0.0800894 -0.994483 -0.688013 
2 0.349033 -0.693487 -1.39656 
2 -3.65234 -1.67697 -2.37657 
1 -2.00316 -0.11726 -0.172913 
2 -3.64656 -0.290488 -2.49388 
1 -1.27686 -3.45231 -2.9052 
1 -3.58172 -3.53865 -2.02588 
1 -2.24211 -3.6703 -2.41032 
1 -0.351871 -0.202003 -0.0780035 
1 0.523274 -1.70898 -0.225939 
1 -0.309408 -3.56111 -2.31374 
1 0.81144 -0.0646795 -2.75576 
1 0.944426 -3.567 -1.89647 
1 -3.63825 -1.87801 -3.22434 
1 1.07455 -0.212252 -1.6977 
1 1.0785 -1.61506 -3.65758 
1 1.091 -2.11047 -2.56659 
1 1.03515 -0.906744 -0.864193 
1 1.16646 -2.47989 -1.55687 
2 1.18619 -1.76287 -0.990443 
1 1.18697 -2.48368 -0.500845 
1 1.3285 -2.62374 -3.49052 
1 1.34963 -1.05454 -2.81682 
1 1.31317 -1.36197 -1.801 
1 1.36042 -3.70617 -3.18405 
2 1.38798 -2.90713 -2.32782 
1 1.46881 -3.37497 -0.975216 
1 1.544 -0.274369 -3.54342 
1 1.55905 -1.51528 -0.180734 
1 0.439666 -0.0104182 -0.781345 
1 -1.25043 -0.000879403 -3.07675 
1 -1.74578 -1.73288 -0.0323178 
1 1.85475 -0.190899 -2.47235 
1 -3.3673 -3.28915 1.64543 
1 -3.37628 -3.01624 0.540617 
1 -2.62741 -2.64146 1.28752 
2 -2.58802 -3.35786 0.667956 
1 -2.36049 -2.56832 0.232139 
1 -1.76241 -3.15655 0.904086 
1 -1.08242 -2.56143 0.349884 
1 -0.936051 -2.78963 1.6268 
1 -1.74249 -2.05304 1.02392 
1 -0.0245672 -2.48684 0.337426 
1 0.163888 -2.68301 1.55886 
1 -0.397288 -3.32867 0.910414 
2 0.660731 -3.47634 1.61751 
1 0.706795 -3.12705 0.727039 
1 0.528369 -1.74685 0.852487 
2 0.848142 -2.36779 0.290243 
1 -2.78594 -1.7117 0.720649 
2 -2.90494 -0.789456 0.925414 
1 -3.37094 -1.25425 1.5212 
1 -2.26921 -1.21527 1.53644 
1 -2.88537 -0.350764 1.73829 
1 -2.15787 -0.914266 0.484531 
2 -1.02231 -1.6642 0.442522 
1 -1.75281 -0.266315 1.62643 
1 -1.2762 -1.08569 1.05079 
2 -1.59597 -0.244708 0.654716 
1 -0.552723 -1.92422 1.14905 
1 -0.736586 -0.172482 0.926021 
1 -0.286854 -1.15664 0.451822 
1 0.102245 -1.15686 1.62863 
2 0.0807894 -0.551862 0.950692 
1 0.633553 -0.686328 0.124786 
1 -3.69424 -0.370044 0.950813 
1 0.106824 -0.0466645 1.68988 
1 -3.07403 -0.430294 0.0742275 
1 -3.71348 -1.26845 0.243957 
1 1.1439 -1.67341 1.70514 
1 0.926753 -0.679055 1.14439 
2 1.20403 -1.25855 0.557967 
1 1.23694 -2.77415 1.61377 
1 1.54696 -2.10744 0.746907 
1 -1.20365 -0.794732 0.0202976 
1 1.63267 -3.17517 0.142038 
1 1.70676 -0.511545 0.208841 
1 1.83486 -0.190895 1.65145 
1 -3.53926 1.48902 -2.34386 
1 -3.36753 0.732621 -3.12642 
2 -2.75297 1.06127 -2.47815 
1 -2.82989 0.14803 -2.48911 
1 -2.12166 0.726051 -3.01019 
1 -2.58927 1.73765 -1.89675 
1 -2.93079 0.435204 -0.609262 
1 -2.99684 0.802894 -1.62833 
1 -2.59952 1.45632 -0.690403 
2 -2.38589 0.210194 -1.33521 
1 -3.52247 1.72163 -1.2755 
1 -3.61207 1.18007 -0.264334 
1 -2.6881 1.35044 -3.65829 
1 -1.98336 0.823997 -1.95324 
1 -1.94585 1.78193 -2.72972 
2 -1.8848 0.0754782 -2.42003 
1 -1.7741 0.692118 -0.885351 
1 -1.69968 1.68814 -1.31091 
1 -1.54384 1.49506 -0.175005 
1 -1.16301 1.04674 -2.75757 
2 -1.14012 1.15347 -1.7648 
1 -1.05046 0.29615 -2.00143 
1 -0.72703 1.42968 -0.969062 
1 -0.693325 0.300899 -0.993288 
1 -0.309099 1.06607 -2.11775 
1 -0.26202 1.44699 -3.13517 
2 -2.54685 0.088935 -3.39754 
1 -0.166465 0.831777 -0.198926 
1 -0.172363 0.364187 -2.92273 
1 0.192002 0.935364 -1.20171 
1 0.25812 1.79779 -0.495164 
1 0.747972 1.79396 -2.46556 
1 0.770716 0.778192 -2.09074 
1 0.837785 0.973346 -3.16874 
1 0.938074 0.916811 -0.415909 
2 1.00449 0.57471 -1.24363 
2 0.990427 0.118516 -0.015848 
1 1.05586 1.54385 -1.38466 
2 1.4465 0.558918 -2.60481 
1 1.52479 0.046305 -0.728128 
1 1.526 1.72454 -3.61528 
1 0.0107754 0.0152761 -1.84719 
1 1.74081 1.37201 -2.50837 
1 1.79492 0.680089 -1.65942 
2 -3.23402 0.351863 1.37682 
2 -2.59947 0.989896 0.939594 
1 -3.33435 1.23361 1.37966 
1 -2.91272 1.64312 0.405717 
1 -3.30859 0.566132 0.525144 
1 -2.44504 0.658664 1.72321 
1 -2.44953 1.75131 1.76735 
1 -2.27465 0.826467 0.153842 
1 -1.92912 1.60552 0.850793 
1 -1.58347 0.582951 1.00488 
1 -1.51522 1.24826 1.811 
2 -1.16498 1.24815 0.59907 
1 -2.47395 0.0248981 0.850198 
1 -0.559686 1.75878 0.212223 
1 -1.15586 0.497987 0.0500061 
1 -0.454887 0.894277 0.990207 
1 0.148465 1.67929 1.45559 
1 0.297241 0.229854 0.616867 
1 0.469021 1.28969 0.49895 
1 0.746363 0.824406 1.4437 
2 0.993588 0.0366607 1.7339 
1 1.30847 0.225364 0.807194 
2 1.33026 1.11492 0.599339 
1 1.8626 0.919199 1.30852 
1 1.8696 0.67039 0.0474867 
1 1.89483 0.700586 -3.35792 
2 1.91617 1.58115 -1.65081 
1 1.93125 -1.11067 1.06121 
1 1.94295 1.41394 -0.759668 
1 -3.72959 -2.07829 0.962747 
2 3.66679 -1.99611 -0.922162 
1 3.14021 -2.76331 -3.14785 
2 2.78062 -2.68778 -2.29371 
2 2.51951 -3.13985 -0.0295998 
2 3.1198 -0.775312 -3.72437 
1 2.5034 -3.64856 -0.743567 
1 2.42603 -0.841999 -3.13153 
1 3.43928 -0.98886 -2.90495 
1 2.01073 -1.86475 -3.15742 
1 2.91056 -1.68115 -3.72036 
1 2.04223 -3.29089 -1.86761 
1 3.15393 -2.66734 -0.524452 
1 2.06024 -1.57341 -1.10436 
1 2.06109 -2.2128 -2.05344 
1 3.49758 -1.0922 -1.82655 
1 2.10518 -2.91663 -2.85611 
1 3.17479 -0.336863 -1.12733 
1 2.18906 -2.61042 -1.0233 
2 3.25633 -0.782241 -0.349803 
2 2.79288 -1.1169 -1.27613 
1 3.0098 -1.99083 -1.52327 
1 2.91037 -3.56157 -2.45711 
1 2.16541 -0.332784 -1.48146 
1 3.02885 -3.06 -1.52724 
1 2.50149 -3.6895 -3.4479 
1 2.92437 -0.31433 -2.243 
1 2.97865 -1.59636 -0.516566 
1 2.94207 -1.86704 -2.60621 
1 2.34293 -1.18195 -2.08582 
1 3.68507 -2.53109 -2.22617 
1 2.38293 -0.722923 -0.541112 
1 3.61884 -3.71778 -0.955718 
1 2.28032 -2.27663 -0.017557 
2 3.3665 -1.18 1.04468 
2 3.30331 -2.0328 0.154484 
1 3.31304 -3.61878 0.0241446 
1 3.23487 -3.63139 1.12245 
1 2.83226 -0.609718 1.47871 
1 2.7478 -1.74532 0.79192 
1 2.17456 -2.97358 1.06191 
1 3.09453 -2.60397 1.64077 
1 2.8497 -0.722166 0.424272 
1 2.15957 -2.01269 1.6385 
1 3.05216 -2.75586 0.55114 
2 2.36438 -1.36747 0.0941627 
2 2.51166 0.0103003 -0.0544925 
2 2.30016 1.47732 -3.28305 
1 2.96871 0.931559 -3.48371 
1 2.93375 1.62046 -2.6888 
1 3.55298 0.522642 -2.20463 
1 3.42607 0.0437407 -0.109884 
1 2.77208 1.26179 -1.64044 
2 2.80621 0.348592 -1.65579 
1 3.53921 0.65169 -1.12285 
1 2.52498 0.482595 -0.814263 
1 3.00728 1.69664 -0.656041 
1 2.52463 0.643816 -2.49063 
2 2.40491 0.0340316 -3.11881 
1 3.72872 1.66295 -3.47242 
1 3.27799 0.00243753 -3.19325 
1 3.38607 0.326886 1.65353 
2 3.69278 1.30701 0.617034 
1 2.89848 0.91315 0.130867 
1 2.93786 1.13712 1.17341 
1 2.1092 1.60457 0.556833 
1 2.45069 0.172495 0.805768 
2 3.31221 0.387985 0.749666 
2 2.51034 0.379265 1.64338 
1 -2.94925 2.15021 -2.89549 
1 -2.67399 3.18207 -3.177 
1 -2.52449 2.81129 -2.09486 
2 -3.27429 2.268 -1.99674 
1 -3.08114 3.1674 -0.375534 
1 -3.53337 2.82794 -1.35729 
1 -2.58621 2.44304 -1.09642 
1 -3.52704 2.22728 -0.286234 
1 -2.02534 3.27205 -0.749323 
1 -3.51561 2.97849 -2.46123 
1 -2.19967 2.30142 -3.65365 
1 -2.23999 2.3693 -0.0911553 
1 -3.62501 2.72787 -3.5098 
1 -2.80904 3.64954 -1.35756 
2 -2.02319 3.42471 -1.6355 
2 -1.46942 3.04887 -0.12862 
1 -1.62642 3.19214 -3.5973 
1 -1.54291 2.92112 -2.57739 
1 -1.54278 2.70591 -1.54493 
1 -1.2074 2.37279 -0.60566 
1 -1.07661 2.20883 -3.23827 
1 -0.955869 3.41274 -0.81088 
1 -0.992525 1.94551 -2.17615 
2 -0.799297 2.22383 -1.37439 
1 -0.599196 3.19871 -3.13419 
1 -0.524319 2.91832 -1.91422 
2 -0.275121 2.37118 -3.59979 
1 -0.173222 2.68644 -0.95082 
1 -0.077791 2.39368 -2.70709 
1 0.0268558 1.94337 -1.65503 
2 -0.0253216 3.40571 -0.43684 
1 0.115383 3.69136 -1.26216 
1 0.457651 3.34236 -2.77956 
1 0.518906 2.01986 -3.54288 
1 0.622491 2.86512 -1.76151 
2 0.625008 2.30683 -1.09395 
1 0.676495 2.85745 -0.34992 
2 0.958733 3.36972 -1.04651 
1 -1.23019 3.70281 -1.87172 
1 1.19344 2.66504 -3.05865 
2 1.23562 3.16072 -2.31658 
1 1.23601 1.87174 -0.00885619 
1 1.46665 2.41613 -0.911534 
1 1.55706 2.3333 -2.01515 
1 1.65203 3.30047 -0.325164 
1 1.73884 3.22836 -1.5152 
1 -2.43804 2.57528 0.998248 
1 -3.53557 3.13118 1.66067 
1 -3.19233 3.4073 0.686214 
2 -3.00021 2.60326 0.31912 
1 -3.48491 2.27468 0.996528 
1 -2.38591 3.62058 1.41571 
1 -2.19228 3.38954 0.305945 
2 -1.74149 3.14218 1.01319 
1 -1.57895 2.5666 1.68406 
1 -1.38892 2.48211 0.54183 
1 -1.23234 3.63126 1.51846 
1 -1.11865 3.54713 0.474728 
1 -0.870722 1.87252 1.24841 
1 -0.516347 2.93301 1.10099 
1 -0.501698 2.82157 0.0273651 
1 0.244751 3.43293 0.436298 
1 0.316402 2.35257 0.587131 
1 0.561475 3.11922 1.39734 
2 1.09641 3.60909 0.293066 
1 1.17481 1.84799 1.09597 
1 1.33153 2.78819 0.561093 
1 1.47198 3.70903 1.09246 
1 1.54677 2.79858 1.64443 
1 2.78972 2.1061 -3.71595 
1 2.13633 2.26044 -2.89412 
1 2.98428 2.87173 -2.89262 
2 2.27191 2.97409 -0.86245 
1 2.41515 2.25779 -1.33922 
1 2.25175 2.40336 -0.154949 
1 3.11866 2.86455 -0.5995 
1 3.27705 2.28341 -1.96402 
1 2.84524 3.23861 -1.61765 
2 2.45878 2.60642 -2.14734 
2 3.6087 2.21954 -2.79613 
1 2.06704 3.29088 -2.53695 
1 3.64661 3.72559 -3.22397 
1 3.11929 1.92284 0.407069 
1 2.38673 3.50224 1.64138 
2 3.09287 2.99984 1.36074 
1 3.31701 2.9336 0.502554 
1 2.05389 1.85935 1.69647 
1 2.36181 2.61376 0.946009 
1 2.39291 3.56743 0.451193 
1 3.09072 2.12915 1.56044 
1 -0.875132 0.392792 1.84624 
2 -0.0674027 0.837532 1.85277 
1 -0.828313 -0.738584 1.93777 
1 -3.38985 -2.1995 1.99612 
2 -2.72654 -2.88474 2.15107 
1 -3.42119 -3.0174 2.66945 
1 -2.311 -2.08776 2.18207 
1 -2.32416 -2.87283 2.98637 
1 -3.01545 -2.0321 2.99598 
1 -1.87486 -3.11487 2.02388 
1 -1.08426 -2.64011 2.64477 
2 -1.02263 -3.44609 2.26433 
2 -0.898762 -2.07714 3.42676 
1 -1.7412 -1.95251 3.10693 
1 0.503756 -3.3091 2.51497 
1 -0.172051 -2.57228 3.17658 
2 -0.263589 -2.87735 2.32508 
1 0.650845 -2.30348 2.43951 
1 -0.462888 -3.58405 2.97974 
2 0.754934 -2.32638 3.32761 
1 -3.07911 -3.60893 3.51376 
1 -2.89125 -1.11746 2.49177 
1 -2.5382 -0.585207 3.40067 
2 -3.12333 -0.310727 2.76587 
1 -3.56454 -1.20352 3.39252 
2 -2.4198 -1.42034 3.21055 
1 -1.21612 -0.156893 2.73923 
1 -1.31046 -1.75657 1.96818 
1 -1.50747 -0.764775 3.59581 
1 -1.84436 -1.02305 2.55684 
1 -0.858113 -1.3207 2.91559 
1 -0.305699 -1.95421 2.24752 
1 -0.497882 -0.342961 3.58058 
1 0.189992 -1.58345 3.20686 
1 -0.0168007 -0.679781 2.62493 
2 0.496192 -1.43051 2.38487 
1 0.582843 -3.22527 3.57467 
1 -1.55348 -3.62858 2.94497 
1 -1.35059 -2.85416 3.6344 
1 -2.29897 -0.0465305 2.55082 
1 0.875231 -0.747096 3.22089 
1 1.01442 -0.74307 2.17193 
1 1.3127 -1.6069 2.77803 
1 1.46209 -2.80674 2.94522 
1 -3.49122 -2.68706 3.66752 
2 1.56927 -2.2637 2.2558 
2 -1.00725 -3.71271 3.68725 
1 1.70312 -0.235588 2.82528 
2 1.7576 -2.04632 3.42626 
2 1.78768 -3.30381 3.62644 
1 -2.95924 0.375172 3.36667 
1 -3.43549 1.2638 3.062 
1 -3.30239 0.455515 2.34823 
2 -3.05434 1.31143 2.24967 
1 -2.31779 0.992409 2.72912 
1 -1.85954 0.295158 3.51106 
1 -1.6341 1.39084 3.70336 
2 -1.69699 0.454913 2.17228 
1 -1.26055 0.902914 2.79812 
1 -0.778082 0.696147 3.71559 
1 -0.703804 1.73922 3.34603 
1 -0.514282 1.49657 2.28591 
1 -0.295596 0.457218 2.73029 
1 0.189859 1.14121 3.40797 
1 0.478935 0.149321 3.67577 
1 0.559067 1.20696 2.42122 
1 0.680354 0.145656 2.608 
2 0.874672 1.64909 3.16946 
1 1.25991 0.818573 3.26122 
2 1.27959 1.40413 1.85384 
1 1.50087 0.637846 2.2394 
1 1.59299 1.6684 2.64151 
2 3.76177 -1.44887 2.51419 
1 -0.206056 3.73509 1.90301 
1 1.45819 3.75789 2.16446 
1 3.36859 -2.17353 2.86894 
1 2.01183 -1.14279 3.40618 
1 3.65631 -0.572819 2.22684 
1 2.54274 -0.0948999 3.48786 
1 3.6066 -0.208029 3.2451 
1 2.0898 -1.08033 2.20098 
1 2.66193 -0.0941429 2.38865 
1 3.12981 -3.46803 2.23481 
1 2.17187 -2.94346 2.13373 
2 2.75848 -2.82432 2.76831 
1 2.27861 -3.62152 2.94061 
1 2.31667 -2.01463 2.71872 
1 2.38539 -2.66122 3.56488 
1 2.96098 -1.05864 2.8758 
1 3.12606 -1.5561 1.89304 
1 3.23881 -3.33338 3.31187 
1 3.11918 0.670415 2.94758 
2 3.18609 1.50111 3.24756 
1 3.4586 1.30617 2.17962 
2 3.68877 0.605594 3.59733 
2 2.1819 0.499235 2.88035 
1 2.29441 1.26713 3.28569 
1 2.4557 1.02836 2.21427 
1 -3.40622 2.14388 2.06659 
1 -2.64302 1.96316 2.82855 
1 -2.55862 2.77813 2.07507 
1 -2.85732 2.88226 3.23433 
1 -3.59369 3.38662 2.72311 
2 -2.25442 3.52836 3.32639 
1 -2.58719 3.72448 2.50184 
2 -3.08373 2.11004 3.60601 
1 -1.86641 2.85231 2.88461 
2 -1.8299 3.39115 2.14466 
1 -1.54565 1.9071 2.62501 
2 -1.42312 2.27036 3.41924 
1 -0.975251 3.11906 2.371 
1 -0.774338 2.85901 3.34845 
2 -0.738476 2.29362 2.65357 
1 -0.176372 2.54024 2.00587 
2 -0.169396 3.06592 2.75002 
1 0.141593 2.21064 2.95066 
1 0.26796 3.11919 3.5824 
1 0.64679 3.11846 2.47841 
1 0.848135 2.16336 2.09547 
1 1.16073 2.48901 3.19699 
1 1.31334 3.55298 3.21486 
2 2.38245 2.63097 1.8516 
1 3.6653 2.25905 3.03488 
1 2.69296 1.99805 2.62405 
1 3.06615 2.9273 2.27036 
1 2.00747 2.83853 2.62877 
2 2.04026 2.14992 3.24437 
1 3.00626 3.07865 3.34093 
1 2.00917 2.90177 3.73344 
