LAMMPS (28 Feb 2012)
echo none
  triclinic box = (-3.7345 -3.7345 -3.7345) to (3.7345 3.7345 3.7345) with tilt (-8.88178e-16 0 0)
  1 by 1 by 1 MPI processor grid
  500 atoms
  500 velocities
WARNING: No fixes defined, atoms won't move (verlet.cpp:52)
Memory usage per processor = 1.7156 Mbytes
Step Temp E_pair E_mol TotEng Press 
       0   0.49133947   -7.6547892            0   -6.9192541  -0.91828237 
Loop time of 0 on 1 procs for 0 steps with 500 atoms

Pair  time (%) = 0 (0)
Neigh time (%) = 0 (0)
Comm  time (%) = 0 (0)
Outpt time (%) = 0 (0)
Other time (%) = 0 (0)

Nlocal:    500 ave 500 max 500 min
Histogram: 1 0 0 0 0 0 0 0 0 0
Nghost:    2182 ave 2182 max 2182 min
Histogram: 1 0 0 0 0 0 0 0 0 0
Neighs:    22891 ave 22891 max 22891 min
Histogram: 1 0 0 0 0 0 0 0 0 0

Total # of neighbors = 22891
Ave neighs/atom = 45.782
Neighbor list builds = 0
Dangerous builds = 0
  500 settings made for image
  triclinic box = (-3.7345 -3.7345 -3.7345) to (3.7345 3.7345 3.7345) with tilt (-8.88178e-16 0 0)
WARNING: Resetting reneighboring criteria during minimization (min.cpp:166)
Memory usage per processor = 2.43658 Mbytes
Step Temp E_pair E_mol TotEng Press 
       0   0.49133947   -7.6547892            0   -6.9192541  -0.91828237 
       1   0.49133947   -7.6547892            0   -6.9192541  -0.91828237 
Loop time of 0.0104649 on 1 procs for 1 steps with 500 atoms

Minimization stats:
  Stopping criterion = linesearch alpha is zero
  Energy initial, next-to-last, final = 
        -7.65478924881     -7.65478924881     -7.65478924881
  Force two-norm initial, final = 0.0762375 0.0762375
  Force max component initial, final = 0.0148795 0.0148795
  Final line search alpha, max atom move = 0.000976562 1.45308e-05
  Iterations, force evaluations = 1 11

Pair  time (%) = 0.0100093 (95.6462)
Neigh time (%) = 0 (0)
Comm  time (%) = 0.000301123 (2.87745)
Outpt time (%) = 0 (0)
Other time (%) = 0.000154495 (1.47632)

Nlocal:    500 ave 500 max 500 min
Histogram: 1 0 0 0 0 0 0 0 0 0
Nghost:    2182 ave 2182 max 2182 min
Histogram: 1 0 0 0 0 0 0 0 0 0
Neighs:    22891 ave 22891 max 22891 min
Histogram: 1 0 0 0 0 0 0 0 0 0

Total # of neighbors = 22891
Ave neighs/atom = 45.782
Neighbor list builds = 0
Dangerous builds = 0
WARNING: No fixes defined, atoms won't move (verlet.cpp:52)
Memory usage per processor = 1.7156 Mbytes
mystep PotEng Xy Xz Yz Lx 
           0   -7.6547892 -8.8817842e-16            0            0        7.469 
Loop time of 0 on 1 procs for 0 steps with 500 atoms

Pair  time (%) = 0 (0)
Neigh time (%) = 0 (0)
Comm  time (%) = 0 (0)
Outpt time (%) = 0 (0)
Other time (%) = 0 (0)

Nlocal:    500 ave 500 max 500 min
Histogram: 1 0 0 0 0 0 0 0 0 0
Nghost:    2182 ave 2182 max 2182 min
Histogram: 1 0 0 0 0 0 0 0 0 0
Neighs:    22891 ave 22891 max 22891 min
Histogram: 1 0 0 0 0 0 0 0 0 0

Total # of neighbors = 22891
Ave neighs/atom = 45.782
Neighbor list builds = 0
Dangerous builds = 0
WARNING: Resetting reneighboring criteria during minimization (min.cpp:166)
Memory usage per processor = 2.43658 Mbytes
mystep PotEng Xy Xz Yz Lx 
           0   -7.6547892 -8.8817842e-16            0            0        7.469 
           0   -7.6547892 -8.8817842e-16            0            0        7.469 
Loop time of 0.010469 on 1 procs for 1 steps with 500 atoms

Minimization stats:
  Stopping criterion = linesearch alpha is zero
  Energy initial, next-to-last, final = 
        -7.65478924881     -7.65478924881     -7.65478924881
  Force two-norm initial, final = 0.0762375 0.0762375
  Force max component initial, final = 0.0148795 0.0148795
  Final line search alpha, max atom move = 0.000976562 1.45308e-05
  Iterations, force evaluations = 1 11

Pair  time (%) = 0.0100181 (95.6935)
Neigh time (%) = 0 (0)
Comm  time (%) = 0.000302553 (2.89)
Outpt time (%) = 0 (0)
Other time (%) = 0.000148296 (1.41653)

Nlocal:    500 ave 500 max 500 min
Histogram: 1 0 0 0 0 0 0 0 0 0
Nghost:    2182 ave 2182 max 2182 min
Histogram: 1 0 0 0 0 0 0 0 0 0
Neighs:    22891 ave 22891 max 22891 min
Histogram: 1 0 0 0 0 0 0 0 0 0

Total # of neighbors = 22891
Ave neighs/atom = 45.782
Neighbor list builds = 0
Dangerous builds = 0
Memory usage per processor = 1.7156 Mbytes
mystep PotEng Xy Xz Yz Lx 
           1   -7.6547892 -8.8817842e-16            0            0        7.469 
           1   -7.6547892     0.007469            0            0        7.469 
Loop time of 0.000885963 on 1 procs for 1 steps with 500 atoms

Pair  time (%) = 0.000836134 (94.3757)
Neigh time (%) = 0 (0)
Comm  time (%) = 2.59876e-05 (2.93326)
Outpt time (%) = 5.96046e-06 (0.672766)
Other time (%) = 1.78814e-05 (2.0183)

Nlocal:    500 ave 500 max 500 min
Histogram: 1 0 0 0 0 0 0 0 0 0
Nghost:    2182 ave 2182 max 2182 min
Histogram: 1 0 0 0 0 0 0 0 0 0
Neighs:    22891 ave 22891 max 22891 min
Histogram: 1 0 0 0 0 0 0 0 0 0

Total # of neighbors = 22891
Ave neighs/atom = 45.782
Neighbor list builds = 0
Dangerous builds = 0
WARNING: No fixes defined, atoms won't move (verlet.cpp:52)
Memory usage per processor = 1.7156 Mbytes
mystep PotEng Xy Xz Yz Lx 
           1   -7.6547483     0.007469            0            0        7.469 
Loop time of 0 on 1 procs for 0 steps with 500 atoms

Pair  time (%) = 0 (0)
Neigh time (%) = 0 (0)
Comm  time (%) = 0 (0)
Outpt time (%) = 0 (0)
Other time (%) = 0 (0)

Nlocal:    500 ave 500 max 500 min
Histogram: 1 0 0 0 0 0 0 0 0 0
Nghost:    2182 ave 2182 max 2182 min
Histogram: 1 0 0 0 0 0 0 0 0 0
Neighs:    22892 ave 22892 max 22892 min
Histogram: 1 0 0 0 0 0 0 0 0 0

Total # of neighbors = 22892
Ave neighs/atom = 45.784
Neighbor list builds = 0
Dangerous builds = 0
WARNING: Resetting reneighboring criteria during minimization (min.cpp:166)
Memory usage per processor = 2.43658 Mbytes
mystep PotEng Xy Xz Yz Lx 
           2   -7.6547483     0.007469            0            0        7.469 
           2   -7.6547601     0.007469            0            0        7.469 
Loop time of 0.137704 on 1 procs for 16 steps with 500 atoms

Minimization stats:
  Stopping criterion = energy tolerance
  Energy initial, next-to-last, final = 
        -7.65474833155      -7.6547600546     -7.65476011524
  Force two-norm initial, final = 1.41295 0.175882
  Force max component initial, final = 0.161668 0.0261252
  Final line search alpha, max atom move = 0.00195312 5.10258e-05
  Iterations, force evaluations = 16 157

Pair  time (%) = 0.131661 (95.6115)
Neigh time (%) = 0 (0)
Comm  time (%) = 0.0039134 (2.8419)
Outpt time (%) = 0 (0)
Other time (%) = 0.00212979 (1.54665)

Nlocal:    500 ave 500 max 500 min
Histogram: 1 0 0 0 0 0 0 0 0 0
Nghost:    2182 ave 2182 max 2182 min
Histogram: 1 0 0 0 0 0 0 0 0 0
Neighs:    22892 ave 22892 max 22892 min
Histogram: 1 0 0 0 0 0 0 0 0 0

Total # of neighbors = 22892
Ave neighs/atom = 45.784
Neighbor list builds = 0
Dangerous builds = 0
WARNING: No fixes defined, atoms won't move (verlet.cpp:52)
Memory usage per processor = 1.7156 Mbytes
mystep PotEng Xy Xz Yz Lx 
           2   -7.6547601     0.007469            0            0        7.469 
Loop time of 0 on 1 procs for 0 steps with 500 atoms

Pair  time (%) = 0 (0)
Neigh time (%) = 0 (0)
Comm  time (%) = 0 (0)
Outpt time (%) = 0 (0)
Other time (%) = 0 (0)

Nlocal:    500 ave 500 max 500 min
Histogram: 1 0 0 0 0 0 0 0 0 0
Nghost:    2182 ave 2182 max 2182 min
Histogram: 1 0 0 0 0 0 0 0 0 0
Neighs:    22886 ave 22886 max 22886 min
Histogram: 1 0 0 0 0 0 0 0 0 0

Total # of neighbors = 22886
Ave neighs/atom = 45.772
Neighbor list builds = 0
Dangerous builds = 0
Memory usage per processor = 1.7156 Mbytes
mystep PotEng Xy Xz Yz Lx 
           3   -7.6547601     0.007469            0            0        7.469 
           3   -7.6547601     0.014938            0            0        7.469 
Loop time of 0.000876188 on 1 procs for 1 steps with 500 atoms

Pair  time (%) = 0.000833035 (95.0748)
Neigh time (%) = 0 (0)
Comm  time (%) = 2.52724e-05 (2.88435)
Outpt time (%) = 5.00679e-06 (0.571429)
Other time (%) = 1.28746e-05 (1.46939)

Nlocal:    500 ave 500 max 500 min
Histogram: 1 0 0 0 0 0 0 0 0 0
Nghost:    2182 ave 2182 max 2182 min
Histogram: 1 0 0 0 0 0 0 0 0 0
Neighs:    22886 ave 22886 max 22886 min
Histogram: 1 0 0 0 0 0 0 0 0 0

Total # of neighbors = 22886
Ave neighs/atom = 45.772
Neighbor list builds = 0
Dangerous builds = 0
WARNING: No fixes defined, atoms won't move (verlet.cpp:52)
Memory usage per processor = 1.7156 Mbytes
mystep PotEng Xy Xz Yz Lx 
           3   -7.6547043     0.014938            0            0        7.469 
Loop time of 0 on 1 procs for 0 steps with 500 atoms

Pair  time (%) = 0 (0)
Neigh time (%) = 0 (0)
Comm  time (%) = 0 (0)
Outpt time (%) = 0 (0)
Other time (%) = 0 (0)

Nlocal:    500 ave 500 max 500 min
Histogram: 1 0 0 0 0 0 0 0 0 0
Nghost:    2182 ave 2182 max 2182 min
Histogram: 1 0 0 0 0 0 0 0 0 0
Neighs:    22889 ave 22889 max 22889 min
Histogram: 1 0 0 0 0 0 0 0 0 0

Total # of neighbors = 22889
Ave neighs/atom = 45.778
Neighbor list builds = 0
Dangerous builds = 0
WARNING: Resetting reneighboring criteria during minimization (min.cpp:166)
Memory usage per processor = 2.43658 Mbytes
mystep PotEng Xy Xz Yz Lx 
           4   -7.6547043     0.014938            0            0        7.469 
           4   -7.6548384     0.014938            0            0        7.469 
Loop time of 1.25416 on 1 procs for 163 steps with 500 atoms

Minimization stats:
  Stopping criterion = energy tolerance
  Energy initial, next-to-last, final = 
        -7.65470430961      -7.6548383332     -7.65483840795
  Force two-norm initial, final = 1.37047 0.129484
  Force max component initial, final = 0.168688 0.0369057
  Final line search alpha, max atom move = 0.00195312 7.20814e-05
  Iterations, force evaluations = 163 1429

Pair  time (%) = 1.19156 (95.0086)
Neigh time (%) = 0.00685883 (0.546886)
Comm  time (%) = 0.0358257 (2.85655)
Outpt time (%) = 0 (0)
Other time (%) = 0.0199156 (1.58796)

Nlocal:    500 ave 500 max 500 min
Histogram: 1 0 0 0 0 0 0 0 0 0
Nghost:    2190 ave 2190 max 2190 min
Histogram: 1 0 0 0 0 0 0 0 0 0
Neighs:    22909 ave 22909 max 22909 min
Histogram: 1 0 0 0 0 0 0 0 0 0

Total # of neighbors = 22909
Ave neighs/atom = 45.818
Neighbor list builds = 4
Dangerous builds = 0
WARNING: No fixes defined, atoms won't move (verlet.cpp:52)
Memory usage per processor = 1.7156 Mbytes
mystep PotEng Xy Xz Yz Lx 
           4   -7.6548384     0.014938            0            0        7.469 
Loop time of 0 on 1 procs for 0 steps with 500 atoms

Pair  time (%) = 0 (0)
Neigh time (%) = 0 (0)
Comm  time (%) = 0 (0)
Outpt time (%) = 0 (0)
Other time (%) = 0 (0)

Nlocal:    500 ave 500 max 500 min
Histogram: 1 0 0 0 0 0 0 0 0 0
Nghost:    2182 ave 2182 max 2182 min
Histogram: 1 0 0 0 0 0 0 0 0 0
Neighs:    22913 ave 22913 max 22913 min
Histogram: 1 0 0 0 0 0 0 0 0 0

Total # of neighbors = 22913
Ave neighs/atom = 45.826
Neighbor list builds = 0
Dangerous builds = 0
Memory usage per processor = 1.7156 Mbytes
mystep PotEng Xy Xz Yz Lx 
           5   -7.6548384     0.014938            0            0        7.469 
           5   -7.6548384     0.022407            0            0        7.469 
Loop time of 0.000880957 on 1 procs for 1 steps with 500 atoms

Pair  time (%) = 0.000832081 (94.452)
Neigh time (%) = 0 (0)
Comm  time (%) = 2.59876e-05 (2.94993)
Outpt time (%) = 5.00679e-06 (0.568336)
Other time (%) = 1.78814e-05 (2.02977)

Nlocal:    500 ave 500 max 500 min
Histogram: 1 0 0 0 0 0 0 0 0 0
Nghost:    2182 ave 2182 max 2182 min
Histogram: 1 0 0 0 0 0 0 0 0 0
Neighs:    22913 ave 22913 max 22913 min
Histogram: 1 0 0 0 0 0 0 0 0 0

Total # of neighbors = 22913
Ave neighs/atom = 45.826
Neighbor list builds = 0
Dangerous builds = 0
WARNING: No fixes defined, atoms won't move (verlet.cpp:52)
Memory usage per processor = 1.7156 Mbytes
mystep PotEng Xy Xz Yz Lx 
           5   -7.6547998     0.022407            0            0        7.469 
Loop time of 0 on 1 procs for 0 steps with 500 atoms

Pair  time (%) = 0 (0)
Neigh time (%) = 0 (0)
Comm  time (%) = 0 (0)
Outpt time (%) = 0 (0)
Other time (%) = 0 (0)

Nlocal:    500 ave 500 max 500 min
Histogram: 1 0 0 0 0 0 0 0 0 0
Nghost:    2182 ave 2182 max 2182 min
Histogram: 1 0 0 0 0 0 0 0 0 0
Neighs:    22912 ave 22912 max 22912 min
Histogram: 1 0 0 0 0 0 0 0 0 0

Total # of neighbors = 22912
Ave neighs/atom = 45.824
Neighbor list builds = 0
Dangerous builds = 0
WARNING: Resetting reneighboring criteria during minimization (min.cpp:166)
Memory usage per processor = 2.43658 Mbytes
mystep PotEng Xy Xz Yz Lx 
           6   -7.6547998     0.022407            0            0        7.469 
           6   -7.6561653     0.022407            0            0        7.469 
Loop time of 1.24609 on 1 procs for 173 steps with 500 atoms

Minimization stats:
  Stopping criterion = energy tolerance
  Energy initial, next-to-last, final = 
        -7.65479980477     -7.65616527711     -7.65616532172
  Force two-norm initial, final = 1.4067 0.13874
  Force max component initial, final = 0.16538 0.0500869
  Final line search alpha, max atom move = 0.00195312 9.78259e-05
  Iterations, force evaluations = 173 1391

Pair  time (%) = 1.16049 (93.1302)
Neigh time (%) = 0.0291386 (2.33839)
Comm  time (%) = 0.0365517 (2.9333)
Outpt time (%) = 0 (0)
Other time (%) = 0.0199139 (1.59811)

Nlocal:    500 ave 500 max 500 min
Histogram: 1 0 0 0 0 0 0 0 0 0
Nghost:    2182 ave 2182 max 2182 min
Histogram: 1 0 0 0 0 0 0 0 0 0
Neighs:    22914 ave 22914 max 22914 min
Histogram: 1 0 0 0 0 0 0 0 0 0

Total # of neighbors = 22914
Ave neighs/atom = 45.828
Neighbor list builds = 17
Dangerous builds = 0
WARNING: No fixes defined, atoms won't move (verlet.cpp:52)
Memory usage per processor = 1.7156 Mbytes
mystep PotEng Xy Xz Yz Lx 
           6   -7.6561653     0.022407            0            0        7.469 
Loop time of 0 on 1 procs for 0 steps with 500 atoms

Pair  time (%) = 0 (0)
Neigh time (%) = 0 (0)
Comm  time (%) = 0 (0)
Outpt time (%) = 0 (0)
Other time (%) = 0 (0)

Nlocal:    500 ave 500 max 500 min
Histogram: 1 0 0 0 0 0 0 0 0 0
Nghost:    2174 ave 2174 max 2174 min
Histogram: 1 0 0 0 0 0 0 0 0 0
Neighs:    22909 ave 22909 max 22909 min
Histogram: 1 0 0 0 0 0 0 0 0 0

Total # of neighbors = 22909
Ave neighs/atom = 45.818
Neighbor list builds = 0
Dangerous builds = 0
Memory usage per processor = 1.7156 Mbytes
mystep PotEng Xy Xz Yz Lx 
           7   -7.6561653     0.022407            0            0        7.469 
           7   -7.6561653     0.029876            0            0        7.469 
Loop time of 0.000878811 on 1 procs for 1 steps with 500 atoms

Pair  time (%) = 0.000832796 (94.764)
Neigh time (%) = 0 (0)
Comm  time (%) = 2.5034e-05 (2.84862)
Outpt time (%) = 5.00679e-06 (0.569723)
Other time (%) = 1.5974e-05 (1.81769)

Nlocal:    500 ave 500 max 500 min
Histogram: 1 0 0 0 0 0 0 0 0 0
Nghost:    2174 ave 2174 max 2174 min
Histogram: 1 0 0 0 0 0 0 0 0 0
Neighs:    22909 ave 22909 max 22909 min
Histogram: 1 0 0 0 0 0 0 0 0 0

Total # of neighbors = 22909
Ave neighs/atom = 45.818
Neighbor list builds = 0
Dangerous builds = 0
WARNING: No fixes defined, atoms won't move (verlet.cpp:52)
Memory usage per processor = 1.7156 Mbytes
mystep PotEng Xy Xz Yz Lx 
           7   -7.6561464     0.029876            0            0        7.469 
Loop time of 9.53674e-07 on 1 procs for 0 steps with 500 atoms

Pair  time (%) = 0 (0)
Neigh time (%) = 0 (0)
Comm  time (%) = 0 (0)
Outpt time (%) = 0 (0)
Other time (%) = 9.53674e-07 (100)

Nlocal:    500 ave 500 max 500 min
Histogram: 1 0 0 0 0 0 0 0 0 0
Nghost:    2174 ave 2174 max 2174 min
Histogram: 1 0 0 0 0 0 0 0 0 0
Neighs:    22908 ave 22908 max 22908 min
Histogram: 1 0 0 0 0 0 0 0 0 0

Total # of neighbors = 22908
Ave neighs/atom = 45.816
Neighbor list builds = 0
Dangerous builds = 0
WARNING: Resetting reneighboring criteria during minimization (min.cpp:166)
Memory usage per processor = 2.43658 Mbytes
mystep PotEng Xy Xz Yz Lx 
           8   -7.6561464     0.029876            0            0        7.469 
           8   -7.6561589     0.029876            0            0        7.469 
Loop time of 0.150614 on 1 procs for 18 steps with 500 atoms

Minimization stats:
  Stopping criterion = energy tolerance
  Energy initial, next-to-last, final = 
        -7.65614640075      -7.6561588222     -7.65615889607
  Force two-norm initial, final = 1.40445 0.161136
  Force max component initial, final = 0.143805 0.0384652
  Final line search alpha, max atom move = 0.00113419 4.36268e-05
  Iterations, force evaluations = 18 172

Pair  time (%) = 0.144011 (95.6163)
Neigh time (%) = 0 (0)
Comm  time (%) = 0.00424218 (2.81659)
Outpt time (%) = 0 (0)
Other time (%) = 0.00236034 (1.56715)

Nlocal:    500 ave 500 max 500 min
Histogram: 1 0 0 0 0 0 0 0 0 0
Nghost:    2174 ave 2174 max 2174 min
Histogram: 1 0 0 0 0 0 0 0 0 0
Neighs:    22908 ave 22908 max 22908 min
Histogram: 1 0 0 0 0 0 0 0 0 0

Total # of neighbors = 22908
Ave neighs/atom = 45.816
Neighbor list builds = 0
Dangerous builds = 0
WARNING: No fixes defined, atoms won't move (verlet.cpp:52)
Memory usage per processor = 1.7156 Mbytes
mystep PotEng Xy Xz Yz Lx 
           8   -7.6561589     0.029876            0            0        7.469 
Loop time of 0 on 1 procs for 0 steps with 500 atoms

Pair  time (%) = 0 (0)
Neigh time (%) = 0 (0)
Comm  time (%) = 0 (0)
Outpt time (%) = 0 (0)
Other time (%) = 0 (0)

Nlocal:    500 ave 500 max 500 min
Histogram: 1 0 0 0 0 0 0 0 0 0
Nghost:    2174 ave 2174 max 2174 min
Histogram: 1 0 0 0 0 0 0 0 0 0
Neighs:    22907 ave 22907 max 22907 min
Histogram: 1 0 0 0 0 0 0 0 0 0

Total # of neighbors = 22907
Ave neighs/atom = 45.814
Neighbor list builds = 0
Dangerous builds = 0
Memory usage per processor = 1.7156 Mbytes
mystep PotEng Xy Xz Yz Lx 
           9   -7.6561589     0.029876            0            0        7.469 
           9   -7.6561589     0.037345            0            0        7.469 
Loop time of 0.000880957 on 1 procs for 1 steps with 500 atoms

Pair  time (%) = 0.000836134 (94.912)
Neigh time (%) = 0 (0)
Comm  time (%) = 2.47955e-05 (2.81461)
Outpt time (%) = 5.96046e-06 (0.67659)
Other time (%) = 1.40667e-05 (1.59675)

Nlocal:    500 ave 500 max 500 min
Histogram: 1 0 0 0 0 0 0 0 0 0
Nghost:    2174 ave 2174 max 2174 min
Histogram: 1 0 0 0 0 0 0 0 0 0
Neighs:    22907 ave 22907 max 22907 min
Histogram: 1 0 0 0 0 0 0 0 0 0

Total # of neighbors = 22907
Ave neighs/atom = 45.814
Neighbor list builds = 0
Dangerous builds = 0
WARNING: No fixes defined, atoms won't move (verlet.cpp:52)
Memory usage per processor = 1.7156 Mbytes
mystep PotEng Xy Xz Yz Lx 
           9   -7.6561269     0.037345            0            0        7.469 
Loop time of 0 on 1 procs for 0 steps with 500 atoms

Pair  time (%) = 0 (0)
Neigh time (%) = 0 (0)
Comm  time (%) = 0 (0)
Outpt time (%) = 0 (0)
Other time (%) = 0 (0)

Nlocal:    500 ave 500 max 500 min
Histogram: 1 0 0 0 0 0 0 0 0 0
Nghost:    2174 ave 2174 max 2174 min
Histogram: 1 0 0 0 0 0 0 0 0 0
Neighs:    22903 ave 22903 max 22903 min
Histogram: 1 0 0 0 0 0 0 0 0 0

Total # of neighbors = 22903
Ave neighs/atom = 45.806
Neighbor list builds = 0
Dangerous builds = 0
WARNING: Resetting reneighboring criteria during minimization (min.cpp:166)
Memory usage per processor = 2.43658 Mbytes
mystep PotEng Xy Xz Yz Lx 
          10   -7.6561269     0.037345            0            0        7.469 
          10   -7.6561436     0.037345            0            0        7.469 
Loop time of 0.19075 on 1 procs for 23 steps with 500 atoms

Minimization stats:
  Stopping criterion = energy tolerance
  Energy initial, next-to-last, final = 
        -7.65612694501     -7.65614351747     -7.65614357269
  Force two-norm initial, final = 1.43165 0.112553
  Force max component initial, final = 0.153059 0.0190559
  Final line search alpha, max atom move = 0.00195312 3.72186e-05
  Iterations, force evaluations = 23 218

Pair  time (%) = 0.182414 (95.63)
Neigh time (%) = 0 (0)
Comm  time (%) = 0.00535369 (2.80665)
Outpt time (%) = 0 (0)
Other time (%) = 0.00298214 (1.56338)

Nlocal:    500 ave 500 max 500 min
Histogram: 1 0 0 0 0 0 0 0 0 0
Nghost:    2174 ave 2174 max 2174 min
Histogram: 1 0 0 0 0 0 0 0 0 0
Neighs:    22903 ave 22903 max 22903 min
Histogram: 1 0 0 0 0 0 0 0 0 0

Total # of neighbors = 22903
Ave neighs/atom = 45.806
Neighbor list builds = 0
Dangerous builds = 0
WARNING: No fixes defined, atoms won't move (verlet.cpp:52)
Memory usage per processor = 1.7156 Mbytes
mystep PotEng Xy Xz Yz Lx 
          10   -7.6561436     0.037345            0            0        7.469 
Loop time of 0 on 1 procs for 0 steps with 500 atoms

Pair  time (%) = 0 (0)
Neigh time (%) = 0 (0)
Comm  time (%) = 0 (0)
Outpt time (%) = 0 (0)
Other time (%) = 0 (0)

Nlocal:    500 ave 500 max 500 min
Histogram: 1 0 0 0 0 0 0 0 0 0
Nghost:    2174 ave 2174 max 2174 min
Histogram: 1 0 0 0 0 0 0 0 0 0
Neighs:    22911 ave 22911 max 22911 min
Histogram: 1 0 0 0 0 0 0 0 0 0

Total # of neighbors = 22911
Ave neighs/atom = 45.822
Neighbor list builds = 0
Dangerous builds = 0
Memory usage per processor = 1.7156 Mbytes
mystep PotEng Xy Xz Yz Lx 
          11   -7.6561436     0.037345            0            0        7.469 
          11   -7.6561436     0.044814            0            0        7.469 
Loop time of 0.00088501 on 1 procs for 1 steps with 500 atoms

Pair  time (%) = 0.000837088 (94.5851)
Neigh time (%) = 0 (0)
Comm  time (%) = 2.5034e-05 (2.82866)
Outpt time (%) = 5.96046e-06 (0.673491)
Other time (%) = 1.69277e-05 (1.91272)

Nlocal:    500 ave 500 max 500 min
Histogram: 1 0 0 0 0 0 0 0 0 0
Nghost:    2174 ave 2174 max 2174 min
Histogram: 1 0 0 0 0 0 0 0 0 0
Neighs:    22911 ave 22911 max 22911 min
Histogram: 1 0 0 0 0 0 0 0 0 0

Total # of neighbors = 22911
Ave neighs/atom = 45.822
Neighbor list builds = 0
Dangerous builds = 0
WARNING: No fixes defined, atoms won't move (verlet.cpp:52)
Memory usage per processor = 1.7156 Mbytes
mystep PotEng Xy Xz Yz Lx 
          11   -7.6561024     0.044814            0            0        7.469 
Loop time of 0 on 1 procs for 0 steps with 500 atoms

Pair  time (%) = 0 (0)
Neigh time (%) = 0 (0)
Comm  time (%) = 0 (0)
Outpt time (%) = 0 (0)
Other time (%) = 0 (0)

Nlocal:    500 ave 500 max 500 min
Histogram: 1 0 0 0 0 0 0 0 0 0
Nghost:    2174 ave 2174 max 2174 min
Histogram: 1 0 0 0 0 0 0 0 0 0
Neighs:    22910 ave 22910 max 22910 min
Histogram: 1 0 0 0 0 0 0 0 0 0

Total # of neighbors = 22910
Ave neighs/atom = 45.82
Neighbor list builds = 0
Dangerous builds = 0
WARNING: Resetting reneighboring criteria during minimization (min.cpp:166)
Memory usage per processor = 2.43658 Mbytes
mystep PotEng Xy Xz Yz Lx 
          12   -7.6561024     0.044814            0            0        7.469 
          12   -7.6561202     0.044814            0            0        7.469 
Loop time of 0.30147 on 1 procs for 36 steps with 500 atoms

Minimization stats:
  Stopping criterion = energy tolerance
  Energy initial, next-to-last, final = 
        -7.65610236632     -7.65612017622     -7.65612024603
  Force two-norm initial, final = 1.41624 0.250638
  Force max component initial, final = 0.139135 0.100551
  Final line search alpha, max atom move = 0.00390625 0.000392779
  Iterations, force evaluations = 36 345

Pair  time (%) = 0.288271 (95.6218)
Neigh time (%) = 0 (0)
Comm  time (%) = 0.00847673 (2.8118)
Outpt time (%) = 0 (0)
Other time (%) = 0.00472212 (1.56636)

Nlocal:    500 ave 500 max 500 min
Histogram: 1 0 0 0 0 0 0 0 0 0
Nghost:    2174 ave 2174 max 2174 min
Histogram: 1 0 0 0 0 0 0 0 0 0
Neighs:    22910 ave 22910 max 22910 min
Histogram: 1 0 0 0 0 0 0 0 0 0

Total # of neighbors = 22910
Ave neighs/atom = 45.82
Neighbor list builds = 0
Dangerous builds = 0
WARNING: No fixes defined, atoms won't move (verlet.cpp:52)
Memory usage per processor = 1.7156 Mbytes
mystep PotEng Xy Xz Yz Lx 
          12   -7.6561202     0.044814            0            0        7.469 
Loop time of 0 on 1 procs for 0 steps with 500 atoms

Pair  time (%) = 0 (0)
Neigh time (%) = 0 (0)
Comm  time (%) = 0 (0)
Outpt time (%) = 0 (0)
Other time (%) = 0 (0)

Nlocal:    500 ave 500 max 500 min
Histogram: 1 0 0 0 0 0 0 0 0 0
Nghost:    2174 ave 2174 max 2174 min
Histogram: 1 0 0 0 0 0 0 0 0 0
Neighs:    22909 ave 22909 max 22909 min
Histogram: 1 0 0 0 0 0 0 0 0 0

Total # of neighbors = 22909
Ave neighs/atom = 45.818
Neighbor list builds = 0
Dangerous builds = 0
Memory usage per processor = 1.7156 Mbytes
mystep PotEng Xy Xz Yz Lx 
          13   -7.6561202     0.044814            0            0        7.469 
          13   -7.6561202     0.052283            0            0        7.469 
Loop time of 0.000883818 on 1 procs for 1 steps with 500 atoms

Pair  time (%) = 0.000837803 (94.7936)
Neigh time (%) = 0 (0)
Comm  time (%) = 2.5034e-05 (2.83248)
Outpt time (%) = 5.96046e-06 (0.6744)
Other time (%) = 1.50204e-05 (1.69949)

Nlocal:    500 ave 500 max 500 min
Histogram: 1 0 0 0 0 0 0 0 0 0
Nghost:    2174 ave 2174 max 2174 min
Histogram: 1 0 0 0 0 0 0 0 0 0
Neighs:    22909 ave 22909 max 22909 min
Histogram: 1 0 0 0 0 0 0 0 0 0

Total # of neighbors = 22909
Ave neighs/atom = 45.818
Neighbor list builds = 0
Dangerous builds = 0
WARNING: No fixes defined, atoms won't move (verlet.cpp:52)
Memory usage per processor = 1.7156 Mbytes
mystep PotEng Xy Xz Yz Lx 
          13   -7.6560698     0.052283            0            0        7.469 
Loop time of 0 on 1 procs for 0 steps with 500 atoms

Pair  time (%) = 0 (0)
Neigh time (%) = 0 (0)
Comm  time (%) = 0 (0)
Outpt time (%) = 0 (0)
Other time (%) = 0 (0)

Nlocal:    500 ave 500 max 500 min
Histogram: 1 0 0 0 0 0 0 0 0 0
Nghost:    2174 ave 2174 max 2174 min
Histogram: 1 0 0 0 0 0 0 0 0 0
Neighs:    22911 ave 22911 max 22911 min
Histogram: 1 0 0 0 0 0 0 0 0 0

Total # of neighbors = 22911
Ave neighs/atom = 45.822
Neighbor list builds = 0
Dangerous builds = 0
WARNING: Resetting reneighboring criteria during minimization (min.cpp:166)
Memory usage per processor = 2.43658 Mbytes
mystep PotEng Xy Xz Yz Lx 
          14   -7.6560698     0.052283            0            0        7.469 
          14    -7.656088     0.052283            0            0        7.469 
Loop time of 0.190897 on 1 procs for 23 steps with 500 atoms

Minimization stats:
  Stopping criterion = energy tolerance
  Energy initial, next-to-last, final = 
        -7.65606982238     -7.65608790343     -7.65608797706
  Force two-norm initial, final = 1.41946 0.165776
  Force max component initial, final = 0.147645 0.0405856
  Final line search alpha, max atom move = 0.00195312 7.92687e-05
  Iterations, force evaluations = 23 218

Pair  time (%) = 0.18254 (95.6223)
Neigh time (%) = 0 (0)
Comm  time (%) = 0.00537562 (2.81598)
Outpt time (%) = 0 (0)
Other time (%) = 0.00298119 (1.56167)

Nlocal:    500 ave 500 max 500 min
Histogram: 1 0 0 0 0 0 0 0 0 0
Nghost:    2174 ave 2174 max 2174 min
Histogram: 1 0 0 0 0 0 0 0 0 0
Neighs:    22911 ave 22911 max 22911 min
Histogram: 1 0 0 0 0 0 0 0 0 0

Total # of neighbors = 22911
Ave neighs/atom = 45.822
Neighbor list builds = 0
Dangerous builds = 0
WARNING: No fixes defined, atoms won't move (verlet.cpp:52)
Memory usage per processor = 1.7156 Mbytes
mystep PotEng Xy Xz Yz Lx 
          14    -7.656088     0.052283            0            0        7.469 
Loop time of 9.53674e-07 on 1 procs for 0 steps with 500 atoms

Pair  time (%) = 0 (0)
Neigh time (%) = 0 (0)
Comm  time (%) = 0 (0)
Outpt time (%) = 0 (0)
Other time (%) = 9.53674e-07 (100)

Nlocal:    500 ave 500 max 500 min
Histogram: 1 0 0 0 0 0 0 0 0 0
Nghost:    2174 ave 2174 max 2174 min
Histogram: 1 0 0 0 0 0 0 0 0 0
Neighs:    22914 ave 22914 max 22914 min
Histogram: 1 0 0 0 0 0 0 0 0 0

Total # of neighbors = 22914
Ave neighs/atom = 45.828
Neighbor list builds = 0
Dangerous builds = 0
Memory usage per processor = 1.7156 Mbytes
mystep PotEng Xy Xz Yz Lx 
          15    -7.656088     0.052283            0            0        7.469 
          15    -7.656088     0.059752            0            0        7.469 
Loop time of 0.000882864 on 1 procs for 1 steps with 500 atoms

Pair  time (%) = 0.000836849 (94.788)
Neigh time (%) = 0 (0)
Comm  time (%) = 2.59876e-05 (2.94356)
Outpt time (%) = 5.96046e-06 (0.675128)
Other time (%) = 1.40667e-05 (1.5933)

Nlocal:    500 ave 500 max 500 min
Histogram: 1 0 0 0 0 0 0 0 0 0
Nghost:    2174 ave 2174 max 2174 min
Histogram: 1 0 0 0 0 0 0 0 0 0
Neighs:    22914 ave 22914 max 22914 min
Histogram: 1 0 0 0 0 0 0 0 0 0

Total # of neighbors = 22914
Ave neighs/atom = 45.828
Neighbor list builds = 0
Dangerous builds = 0
WARNING: No fixes defined, atoms won't move (verlet.cpp:52)
Memory usage per processor = 1.7156 Mbytes
mystep PotEng Xy Xz Yz Lx 
          15   -7.6560301     0.059752            0            0        7.469 
Loop time of 0 on 1 procs for 0 steps with 500 atoms

Pair  time (%) = 0 (0)
Neigh time (%) = 0 (0)
Comm  time (%) = 0 (0)
Outpt time (%) = 0 (0)
Other time (%) = 0 (0)

Nlocal:    500 ave 500 max 500 min
Histogram: 1 0 0 0 0 0 0 0 0 0
Nghost:    2174 ave 2174 max 2174 min
Histogram: 1 0 0 0 0 0 0 0 0 0
Neighs:    22923 ave 22923 max 22923 min
Histogram: 1 0 0 0 0 0 0 0 0 0

Total # of neighbors = 22923
Ave neighs/atom = 45.846
Neighbor list builds = 0
Dangerous builds = 0
WARNING: Resetting reneighboring criteria during minimization (min.cpp:166)
Memory usage per processor = 2.43658 Mbytes
mystep PotEng Xy Xz Yz Lx 
          16   -7.6560301     0.059752            0            0        7.469 
          16   -7.6560687     0.059752            0            0        7.469 
Loop time of 0.568976 on 1 procs for 70 steps with 500 atoms

Minimization stats:
  Stopping criterion = energy tolerance
  Energy initial, next-to-last, final = 
        -7.65603008627     -7.65606863691     -7.65606870693
  Force two-norm initial, final = 1.4385 0.171782
  Force max component initial, final = 0.148371 0.0516317
  Final line search alpha, max atom move = 0.00195312 0.000100843
  Iterations, force evaluations = 70 643

Pair  time (%) = 0.536913 (94.3648)
Neigh time (%) = 0.00687981 (1.20916)
Comm  time (%) = 0.016356 (2.87464)
Outpt time (%) = 0 (0)
Other time (%) = 0.00882697 (1.55138)

Nlocal:    500 ave 500 max 500 min
Histogram: 1 0 0 0 0 0 0 0 0 0
Nghost:    2178 ave 2178 max 2178 min
Histogram: 1 0 0 0 0 0 0 0 0 0
Neighs:    22920 ave 22920 max 22920 min
Histogram: 1 0 0 0 0 0 0 0 0 0

Total # of neighbors = 22920
Ave neighs/atom = 45.84
Neighbor list builds = 4
Dangerous builds = 0
WARNING: No fixes defined, atoms won't move (verlet.cpp:52)
Memory usage per processor = 1.7156 Mbytes
mystep PotEng Xy Xz Yz Lx 
          16   -7.6560687     0.059752            0            0        7.469 
Loop time of 0 on 1 procs for 0 steps with 500 atoms

Pair  time (%) = 0 (0)
Neigh time (%) = 0 (0)
Comm  time (%) = 0 (0)
Outpt time (%) = 0 (0)
Other time (%) = 0 (0)

Nlocal:    500 ave 500 max 500 min
Histogram: 1 0 0 0 0 0 0 0 0 0
Nghost:    2178 ave 2178 max 2178 min
Histogram: 1 0 0 0 0 0 0 0 0 0
Neighs:    22910 ave 22910 max 22910 min
Histogram: 1 0 0 0 0 0 0 0 0 0

Total # of neighbors = 22910
Ave neighs/atom = 45.82
Neighbor list builds = 0
Dangerous builds = 0
Memory usage per processor = 1.7156 Mbytes
mystep PotEng Xy Xz Yz Lx 
          17   -7.6560687     0.059752            0            0        7.469 
          17   -7.6560687     0.067221            0            0        7.469 
Loop time of 0.00087595 on 1 procs for 1 steps with 500 atoms

Pair  time (%) = 0.000833035 (95.1007)
Neigh time (%) = 0 (0)
Comm  time (%) = 2.5034e-05 (2.85792)
Outpt time (%) = 5.00679e-06 (0.571584)
Other time (%) = 1.28746e-05 (1.46979)

Nlocal:    500 ave 500 max 500 min
Histogram: 1 0 0 0 0 0 0 0 0 0
Nghost:    2178 ave 2178 max 2178 min
Histogram: 1 0 0 0 0 0 0 0 0 0
Neighs:    22910 ave 22910 max 22910 min
Histogram: 1 0 0 0 0 0 0 0 0 0

Total # of neighbors = 22910
Ave neighs/atom = 45.82
Neighbor list builds = 0
Dangerous builds = 0
WARNING: No fixes defined, atoms won't move (verlet.cpp:52)
Memory usage per processor = 1.7156 Mbytes
mystep PotEng Xy Xz Yz Lx 
          17   -7.6560157     0.067221            0            0        7.469 
Loop time of 9.53674e-07 on 1 procs for 0 steps with 500 atoms

Pair  time (%) = 0 (0)
Neigh time (%) = 0 (0)
Comm  time (%) = 0 (0)
Outpt time (%) = 0 (0)
Other time (%) = 9.53674e-07 (100)

Nlocal:    500 ave 500 max 500 min
Histogram: 1 0 0 0 0 0 0 0 0 0
Nghost:    2178 ave 2178 max 2178 min
Histogram: 1 0 0 0 0 0 0 0 0 0
Neighs:    22918 ave 22918 max 22918 min
Histogram: 1 0 0 0 0 0 0 0 0 0

Total # of neighbors = 22918
Ave neighs/atom = 45.836
Neighbor list builds = 0
Dangerous builds = 0
WARNING: Resetting reneighboring criteria during minimization (min.cpp:166)
Memory usage per processor = 2.43658 Mbytes
mystep PotEng Xy Xz Yz Lx 
          18   -7.6560157     0.067221            0            0        7.469 
          18   -7.6562096     0.067221            0            0        7.469 
Loop time of 0.711727 on 1 procs for 97 steps with 500 atoms

Minimization stats:
  Stopping criterion = energy tolerance
  Energy initial, next-to-last, final = 
        -7.65601565843     -7.65620955649     -7.65620963094
  Force two-norm initial, final = 1.42166 0.130096
  Force max component initial, final = 0.171483 0.0303203
  Final line search alpha, max atom move = 0.00195312 5.92194e-05
  Iterations, force evaluations = 97 813

Pair  time (%) = 0.678309 (95.3046)
Neigh time (%) = 0.00171399 (0.240821)
Comm  time (%) = 0.0202782 (2.84916)
Outpt time (%) = 0 (0)
Other time (%) = 0.0114262 (1.60542)

Nlocal:    500 ave 500 max 500 min
Histogram: 1 0 0 0 0 0 0 0 0 0
Nghost:    2184 ave 2184 max 2184 min
Histogram: 1 0 0 0 0 0 0 0 0 0
Neighs:    22891 ave 22891 max 22891 min
Histogram: 1 0 0 0 0 0 0 0 0 0

Total # of neighbors = 22891
Ave neighs/atom = 45.782
Neighbor list builds = 1
Dangerous builds = 0
WARNING: No fixes defined, atoms won't move (verlet.cpp:52)
Memory usage per processor = 1.7156 Mbytes
mystep PotEng Xy Xz Yz Lx 
          18   -7.6562096     0.067221            0            0        7.469 
Loop time of 0 on 1 procs for 0 steps with 500 atoms

Pair  time (%) = 0 (0)
Neigh time (%) = 0 (0)
Comm  time (%) = 0 (0)
Outpt time (%) = 0 (0)
Other time (%) = 0 (0)

Nlocal:    500 ave 500 max 500 min
Histogram: 1 0 0 0 0 0 0 0 0 0
Nghost:    2180 ave 2180 max 2180 min
Histogram: 1 0 0 0 0 0 0 0 0 0
Neighs:    22896 ave 22896 max 22896 min
Histogram: 1 0 0 0 0 0 0 0 0 0

Total # of neighbors = 22896
Ave neighs/atom = 45.792
Neighbor list builds = 0
Dangerous builds = 0
Memory usage per processor = 1.7156 Mbytes
mystep PotEng Xy Xz Yz Lx 
          19   -7.6562096     0.067221            0            0        7.469 
          19   -7.6562096      0.07469            0            0        7.469 
Loop time of 0.000876904 on 1 procs for 1 steps with 500 atoms

Pair  time (%) = 0.000832796 (94.9701)
Neigh time (%) = 0 (0)
Comm  time (%) = 2.5034e-05 (2.85481)
Outpt time (%) = 5.96046e-06 (0.679717)
Other time (%) = 1.3113e-05 (1.49538)

Nlocal:    500 ave 500 max 500 min
Histogram: 1 0 0 0 0 0 0 0 0 0
Nghost:    2180 ave 2180 max 2180 min
Histogram: 1 0 0 0 0 0 0 0 0 0
Neighs:    22896 ave 22896 max 22896 min
Histogram: 1 0 0 0 0 0 0 0 0 0

Total # of neighbors = 22896
Ave neighs/atom = 45.792
Neighbor list builds = 0
Dangerous builds = 0
WARNING: No fixes defined, atoms won't move (verlet.cpp:52)
Memory usage per processor = 1.7156 Mbytes
mystep PotEng Xy Xz Yz Lx 
          19   -7.6562119      0.07469            0            0        7.469 
Loop time of 9.53674e-07 on 1 procs for 0 steps with 500 atoms

Pair  time (%) = 0 (0)
Neigh time (%) = 0 (0)
Comm  time (%) = 0 (0)
Outpt time (%) = 0 (0)
Other time (%) = 9.53674e-07 (100)

Nlocal:    500 ave 500 max 500 min
Histogram: 1 0 0 0 0 0 0 0 0 0
Nghost:    2180 ave 2180 max 2180 min
Histogram: 1 0 0 0 0 0 0 0 0 0
Neighs:    22893 ave 22893 max 22893 min
Histogram: 1 0 0 0 0 0 0 0 0 0

Total # of neighbors = 22893
Ave neighs/atom = 45.786
Neighbor list builds = 0
Dangerous builds = 0
WARNING: Resetting reneighboring criteria during minimization (min.cpp:166)
Memory usage per processor = 2.43658 Mbytes
mystep PotEng Xy Xz Yz Lx 
          20   -7.6562119      0.07469            0            0        7.469 
          20   -7.6562326      0.07469            0            0        7.469 
Loop time of 0.355802 on 1 procs for 43 steps with 500 atoms

Minimization stats:
  Stopping criterion = energy tolerance
  Energy initial, next-to-last, final = 
        -7.65621190173     -7.65623256453     -7.65623262213
  Force two-norm initial, final = 1.42646 0.230442
  Force max component initial, final = 0.161793 0.0508613
  Final line search alpha, max atom move = 0.000909765 4.62718e-05
  Iterations, force evaluations = 43 405

Pair  time (%) = 0.338407 (95.1111)
Neigh time (%) = 0.00170588 (0.479448)
Comm  time (%) = 0.0101287 (2.84673)
Outpt time (%) = 0 (0)
Other time (%) = 0.00556016 (1.56271)

Nlocal:    500 ave 500 max 500 min
Histogram: 1 0 0 0 0 0 0 0 0 0
Nghost:    2172 ave 2172 max 2172 min
Histogram: 1 0 0 0 0 0 0 0 0 0
Neighs:    22901 ave 22901 max 22901 min
Histogram: 1 0 0 0 0 0 0 0 0 0

Total # of neighbors = 22901
Ave neighs/atom = 45.802
Neighbor list builds = 1
Dangerous builds = 0
WARNING: No fixes defined, atoms won't move (verlet.cpp:52)
Memory usage per processor = 1.7156 Mbytes
mystep PotEng Xy Xz Yz Lx 
          20   -7.6562326      0.07469            0            0        7.469 
Loop time of 0 on 1 procs for 0 steps with 500 atoms

Pair  time (%) = 0 (0)
Neigh time (%) = 0 (0)
Comm  time (%) = 0 (0)
Outpt time (%) = 0 (0)
Other time (%) = 0 (0)

Nlocal:    500 ave 500 max 500 min
Histogram: 1 0 0 0 0 0 0 0 0 0
Nghost:    2180 ave 2180 max 2180 min
Histogram: 1 0 0 0 0 0 0 0 0 0
Neighs:    22902 ave 22902 max 22902 min
Histogram: 1 0 0 0 0 0 0 0 0 0

Total # of neighbors = 22902
Ave neighs/atom = 45.804
Neighbor list builds = 0
Dangerous builds = 0
Memory usage per processor = 1.7156 Mbytes
mystep PotEng Xy Xz Yz Lx 
          21   -7.6562326      0.07469            0            0        7.469 
          21   -7.6562326     0.082159            0            0        7.469 
Loop time of 0.000877857 on 1 procs for 1 steps with 500 atoms

Pair  time (%) = 0.000833035 (94.8941)
Neigh time (%) = 0 (0)
Comm  time (%) = 2.47955e-05 (2.82455)
Outpt time (%) = 5.96046e-06 (0.678979)
Other time (%) = 1.40667e-05 (1.60239)

Nlocal:    500 ave 500 max 500 min
Histogram: 1 0 0 0 0 0 0 0 0 0
Nghost:    2180 ave 2180 max 2180 min
Histogram: 1 0 0 0 0 0 0 0 0 0
Neighs:    22902 ave 22902 max 22902 min
Histogram: 1 0 0 0 0 0 0 0 0 0

Total # of neighbors = 22902
Ave neighs/atom = 45.804
Neighbor list builds = 0
Dangerous builds = 0
WARNING: No fixes defined, atoms won't move (verlet.cpp:52)
Memory usage per processor = 1.7156 Mbytes
mystep PotEng Xy Xz Yz Lx 
          21   -7.6562291     0.082159            0            0        7.469 
Loop time of 0 on 1 procs for 0 steps with 500 atoms

Pair  time (%) = 0 (0)
Neigh time (%) = 0 (0)
Comm  time (%) = 0 (0)
Outpt time (%) = 0 (0)
Other time (%) = 0 (0)

Nlocal:    500 ave 500 max 500 min
Histogram: 1 0 0 0 0 0 0 0 0 0
Nghost:    2180 ave 2180 max 2180 min
Histogram: 1 0 0 0 0 0 0 0 0 0
Neighs:    22898 ave 22898 max 22898 min
Histogram: 1 0 0 0 0 0 0 0 0 0

Total # of neighbors = 22898
Ave neighs/atom = 45.796
Neighbor list builds = 0
Dangerous builds = 0
WARNING: Resetting reneighboring criteria during minimization (min.cpp:166)
Memory usage per processor = 2.43658 Mbytes
mystep PotEng Xy Xz Yz Lx 
          22   -7.6562291     0.082159            0            0        7.469 
          22   -7.6562466     0.082159            0            0        7.469 
Loop time of 0.223244 on 1 procs for 27 steps with 500 atoms

Minimization stats:
  Stopping criterion = energy tolerance
  Energy initial, next-to-last, final = 
        -7.65622908814     -7.65624650197     -7.65624657101
  Force two-norm initial, final = 1.40137 0.215305
  Force max component initial, final = 0.151197 0.0431717
  Final line search alpha, max atom move = 0.00184083 7.94715e-05
  Iterations, force evaluations = 27 255

Pair  time (%) = 0.213445 (95.6107)
Neigh time (%) = 0 (0)
Comm  time (%) = 0.00629354 (2.81913)
Outpt time (%) = 0 (0)
Other time (%) = 0.00350523 (1.57013)

Nlocal:    500 ave 500 max 500 min
Histogram: 1 0 0 0 0 0 0 0 0 0
Nghost:    2180 ave 2180 max 2180 min
Histogram: 1 0 0 0 0 0 0 0 0 0
Neighs:    22898 ave 22898 max 22898 min
Histogram: 1 0 0 0 0 0 0 0 0 0

Total # of neighbors = 22898
Ave neighs/atom = 45.796
Neighbor list builds = 0
Dangerous builds = 0
WARNING: No fixes defined, atoms won't move (verlet.cpp:52)
Memory usage per processor = 1.7156 Mbytes
mystep PotEng Xy Xz Yz Lx 
          22   -7.6562466     0.082159            0            0        7.469 
Loop time of 0 on 1 procs for 0 steps with 500 atoms

Pair  time (%) = 0 (0)
Neigh time (%) = 0 (0)
Comm  time (%) = 0 (0)
Outpt time (%) = 0 (0)
Other time (%) = 0 (0)

Nlocal:    500 ave 500 max 500 min
Histogram: 1 0 0 0 0 0 0 0 0 0
Nghost:    2180 ave 2180 max 2180 min
Histogram: 1 0 0 0 0 0 0 0 0 0
Neighs:    22898 ave 22898 max 22898 min
Histogram: 1 0 0 0 0 0 0 0 0 0

Total # of neighbors = 22898
Ave neighs/atom = 45.796
Neighbor list builds = 0
Dangerous builds = 0
Memory usage per processor = 1.7156 Mbytes
mystep PotEng Xy Xz Yz Lx 
          23   -7.6562466     0.082159            0            0        7.469 
          23   -7.6562466     0.089628            0            0        7.469 
Loop time of 0.000878096 on 1 procs for 1 steps with 500 atoms

Pair  time (%) = 0.000833035 (94.8683)
Neigh time (%) = 0 (0)
Comm  time (%) = 2.59876e-05 (2.95954)
Outpt time (%) = 6.19888e-06 (0.705946)
Other time (%) = 1.28746e-05 (1.4662)

Nlocal:    500 ave 500 max 500 min
Histogram: 1 0 0 0 0 0 0 0 0 0
Nghost:    2180 ave 2180 max 2180 min
Histogram: 1 0 0 0 0 0 0 0 0 0
Neighs:    22898 ave 22898 max 22898 min
Histogram: 1 0 0 0 0 0 0 0 0 0

Total # of neighbors = 22898
Ave neighs/atom = 45.796
Neighbor list builds = 0
Dangerous builds = 0
WARNING: No fixes defined, atoms won't move (verlet.cpp:52)
Memory usage per processor = 1.7156 Mbytes
mystep PotEng Xy Xz Yz Lx 
          23   -7.6562331     0.089628            0            0        7.469 
Loop time of 0 on 1 procs for 0 steps with 500 atoms

Pair  time (%) = 0 (0)
Neigh time (%) = 0 (0)
Comm  time (%) = 0 (0)
Outpt time (%) = 0 (0)
Other time (%) = 0 (0)

Nlocal:    500 ave 500 max 500 min
Histogram: 1 0 0 0 0 0 0 0 0 0
Nghost:    2180 ave 2180 max 2180 min
Histogram: 1 0 0 0 0 0 0 0 0 0
Neighs:    22897 ave 22897 max 22897 min
Histogram: 1 0 0 0 0 0 0 0 0 0

Total # of neighbors = 22897
Ave neighs/atom = 45.794
Neighbor list builds = 0
Dangerous builds = 0
WARNING: Resetting reneighboring criteria during minimization (min.cpp:166)
Memory usage per processor = 2.43658 Mbytes
mystep PotEng Xy Xz Yz Lx 
          24   -7.6562331     0.089628            0            0        7.469 
          24     -7.65625     0.089628            0            0        7.469 
Loop time of 0.235552 on 1 procs for 28 steps with 500 atoms

Minimization stats:
  Stopping criterion = energy tolerance
  Energy initial, next-to-last, final = 
        -7.65623311176     -7.65624994806     -7.65625000521
  Force two-norm initial, final = 1.45163 0.147688
  Force max component initial, final = 0.147704 0.0376098
  Final line search alpha, max atom move = 0.00195312 7.34566e-05
  Iterations, force evaluations = 28 269

Pair  time (%) = 0.225226 (95.6161)
Neigh time (%) = 0 (0)
Comm  time (%) = 0.00662756 (2.81363)
Outpt time (%) = 0 (0)
Other time (%) = 0.00369883 (1.57028)

Nlocal:    500 ave 500 max 500 min
Histogram: 1 0 0 0 0 0 0 0 0 0
Nghost:    2180 ave 2180 max 2180 min
Histogram: 1 0 0 0 0 0 0 0 0 0
Neighs:    22897 ave 22897 max 22897 min
Histogram: 1 0 0 0 0 0 0 0 0 0

Total # of neighbors = 22897
Ave neighs/atom = 45.794
Neighbor list builds = 0
Dangerous builds = 0
WARNING: No fixes defined, atoms won't move (verlet.cpp:52)
Memory usage per processor = 1.7156 Mbytes
mystep PotEng Xy Xz Yz Lx 
          24     -7.65625     0.089628            0            0        7.469 
Loop time of 0 on 1 procs for 0 steps with 500 atoms

Pair  time (%) = 0 (0)
Neigh time (%) = 0 (0)
Comm  time (%) = 0 (0)
Outpt time (%) = 0 (0)
Other time (%) = 0 (0)

Nlocal:    500 ave 500 max 500 min
Histogram: 1 0 0 0 0 0 0 0 0 0
Nghost:    2180 ave 2180 max 2180 min
Histogram: 1 0 0 0 0 0 0 0 0 0
Neighs:    22896 ave 22896 max 22896 min
Histogram: 1 0 0 0 0 0 0 0 0 0

Total # of neighbors = 22896
Ave neighs/atom = 45.792
Neighbor list builds = 0
Dangerous builds = 0
Memory usage per processor = 1.7156 Mbytes
mystep PotEng Xy Xz Yz Lx 
          25     -7.65625     0.089628            0            0        7.469 
          25     -7.65625     0.097097            0            0        7.469 
Loop time of 0.000877142 on 1 procs for 1 steps with 500 atoms

Pair  time (%) = 0.000833035 (94.9715)
Neigh time (%) = 0 (0)
Comm  time (%) = 2.5034e-05 (2.85404)
Outpt time (%) = 5.96046e-06 (0.679532)
Other time (%) = 1.3113e-05 (1.49497)

Nlocal:    500 ave 500 max 500 min
Histogram: 1 0 0 0 0 0 0 0 0 0
Nghost:    2180 ave 2180 max 2180 min
Histogram: 1 0 0 0 0 0 0 0 0 0
Neighs:    22896 ave 22896 max 22896 min
Histogram: 1 0 0 0 0 0 0 0 0 0

Total # of neighbors = 22896
Ave neighs/atom = 45.792
Neighbor list builds = 0
Dangerous builds = 0
WARNING: No fixes defined, atoms won't move (verlet.cpp:52)
Memory usage per processor = 1.7156 Mbytes
mystep PotEng Xy Xz Yz Lx 
          25   -7.6562265     0.097097            0            0        7.469 
Loop time of 9.53674e-07 on 1 procs for 0 steps with 500 atoms

Pair  time (%) = 0 (0)
Neigh time (%) = 0 (0)
Comm  time (%) = 0 (0)
Outpt time (%) = 0 (0)
Other time (%) = 9.53674e-07 (100)

Nlocal:    500 ave 500 max 500 min
Histogram: 1 0 0 0 0 0 0 0 0 0
Nghost:    2180 ave 2180 max 2180 min
Histogram: 1 0 0 0 0 0 0 0 0 0
Neighs:    22890 ave 22890 max 22890 min
Histogram: 1 0 0 0 0 0 0 0 0 0

Total # of neighbors = 22890
Ave neighs/atom = 45.78
Neighbor list builds = 0
Dangerous builds = 0
WARNING: Resetting reneighboring criteria during minimization (min.cpp:166)
Memory usage per processor = 2.43658 Mbytes
mystep PotEng Xy Xz Yz Lx 
          26   -7.6562265     0.097097            0            0        7.469 
          26   -7.6562446     0.097097            0            0        7.469 
Loop time of 0.251152 on 1 procs for 30 steps with 500 atoms

Minimization stats:
  Stopping criterion = energy tolerance
  Energy initial, next-to-last, final = 
        -7.65622651745     -7.65624458234     -7.65624463611
  Force two-norm initial, final = 1.45995 0.145525
  Force max component initial, final = 0.148379 0.051755
  Final line search alpha, max atom move = 0.00195312 0.000101084
  Iterations, force evaluations = 30 287

Pair  time (%) = 0.240152 (95.6203)
Neigh time (%) = 0 (0)
Comm  time (%) = 0.00703335 (2.80043)
Outpt time (%) = 0 (0)
Other time (%) = 0.00396633 (1.57926)

Nlocal:    500 ave 500 max 500 min
Histogram: 1 0 0 0 0 0 0 0 0 0
Nghost:    2180 ave 2180 max 2180 min
Histogram: 1 0 0 0 0 0 0 0 0 0
Neighs:    22890 ave 22890 max 22890 min
Histogram: 1 0 0 0 0 0 0 0 0 0

Total # of neighbors = 22890
Ave neighs/atom = 45.78
Neighbor list builds = 0
Dangerous builds = 0
WARNING: No fixes defined, atoms won't move (verlet.cpp:52)
Memory usage per processor = 1.7156 Mbytes
mystep PotEng Xy Xz Yz Lx 
          26   -7.6562446     0.097097            0            0        7.469 
Loop time of 0 on 1 procs for 0 steps with 500 atoms

Pair  time (%) = 0 (0)
Neigh time (%) = 0 (0)
Comm  time (%) = 0 (0)
Outpt time (%) = 0 (0)
Other time (%) = 0 (0)

Nlocal:    500 ave 500 max 500 min
Histogram: 1 0 0 0 0 0 0 0 0 0
Nghost:    2180 ave 2180 max 2180 min
Histogram: 1 0 0 0 0 0 0 0 0 0
Neighs:    22886 ave 22886 max 22886 min
Histogram: 1 0 0 0 0 0 0 0 0 0

Total # of neighbors = 22886
Ave neighs/atom = 45.772
Neighbor list builds = 0
Dangerous builds = 0
Memory usage per processor = 1.7156 Mbytes
mystep PotEng Xy Xz Yz Lx 
          27   -7.6562446     0.097097            0            0        7.469 
          27   -7.6562446     0.104566            0            0        7.469 
Loop time of 0.00087595 on 1 procs for 1 steps with 500 atoms

Pair  time (%) = 0.000833035 (95.1007)
Neigh time (%) = 0 (0)
Comm  time (%) = 2.47955e-05 (2.8307)
Outpt time (%) = 5.00679e-06 (0.571584)
Other time (%) = 1.3113e-05 (1.49701)

Nlocal:    500 ave 500 max 500 min
Histogram: 1 0 0 0 0 0 0 0 0 0
Nghost:    2180 ave 2180 max 2180 min
Histogram: 1 0 0 0 0 0 0 0 0 0
Neighs:    22886 ave 22886 max 22886 min
Histogram: 1 0 0 0 0 0 0 0 0 0

Total # of neighbors = 22886
Ave neighs/atom = 45.772
Neighbor list builds = 0
Dangerous builds = 0
WARNING: No fixes defined, atoms won't move (verlet.cpp:52)
Memory usage per processor = 1.7156 Mbytes
mystep PotEng Xy Xz Yz Lx 
          27   -7.6562119     0.104566            0            0        7.469 
Loop time of 0 on 1 procs for 0 steps with 500 atoms

Pair  time (%) = 0 (0)
Neigh time (%) = 0 (0)
Comm  time (%) = 0 (0)
Outpt time (%) = 0 (0)
Other time (%) = 0 (0)

Nlocal:    500 ave 500 max 500 min
Histogram: 1 0 0 0 0 0 0 0 0 0
Nghost:    2180 ave 2180 max 2180 min
Histogram: 1 0 0 0 0 0 0 0 0 0
Neighs:    22890 ave 22890 max 22890 min
Histogram: 1 0 0 0 0 0 0 0 0 0

Total # of neighbors = 22890
Ave neighs/atom = 45.78
Neighbor list builds = 0
Dangerous builds = 0
WARNING: Resetting reneighboring criteria during minimization (min.cpp:166)
Memory usage per processor = 2.43658 Mbytes
mystep PotEng Xy Xz Yz Lx 
          28   -7.6562119     0.104566            0            0        7.469 
          28   -7.6562303     0.104566            0            0        7.469 
Loop time of 0.205882 on 1 procs for 25 steps with 500 atoms

Minimization stats:
  Stopping criterion = energy tolerance
  Energy initial, next-to-last, final = 
        -7.65621190841      -7.6562302876     -7.65623033511
  Force two-norm initial, final = 1.4191 0.135744
  Force max component initial, final = 0.157278 0.0458218
  Final line search alpha, max atom move = 0.00195312 8.94956e-05
  Iterations, force evaluations = 25 235

Pair  time (%) = 0.196839 (95.6077)
Neigh time (%) = 0 (0)
Comm  time (%) = 0.00582242 (2.82804)
Outpt time (%) = 0 (0)
Other time (%) = 0.00322056 (1.56428)

Nlocal:    500 ave 500 max 500 min
Histogram: 1 0 0 0 0 0 0 0 0 0
Nghost:    2180 ave 2180 max 2180 min
Histogram: 1 0 0 0 0 0 0 0 0 0
Neighs:    22890 ave 22890 max 22890 min
Histogram: 1 0 0 0 0 0 0 0 0 0

Total # of neighbors = 22890
Ave neighs/atom = 45.78
Neighbor list builds = 0
Dangerous builds = 0
WARNING: No fixes defined, atoms won't move (verlet.cpp:52)
Memory usage per processor = 1.7156 Mbytes
mystep PotEng Xy Xz Yz Lx 
          28   -7.6562303     0.104566            0            0        7.469 
Loop time of 0 on 1 procs for 0 steps with 500 atoms

Pair  time (%) = 0 (0)
Neigh time (%) = 0 (0)
Comm  time (%) = 0 (0)
Outpt time (%) = 0 (0)
Other time (%) = 0 (0)

Nlocal:    500 ave 500 max 500 min
Histogram: 1 0 0 0 0 0 0 0 0 0
Nghost:    2183 ave 2183 max 2183 min
Histogram: 1 0 0 0 0 0 0 0 0 0
Neighs:    22886 ave 22886 max 22886 min
Histogram: 1 0 0 0 0 0 0 0 0 0

Total # of neighbors = 22886
Ave neighs/atom = 45.772
Neighbor list builds = 0
Dangerous builds = 0
Memory usage per processor = 1.7156 Mbytes
mystep PotEng Xy Xz Yz Lx 
          29   -7.6562303     0.104566            0            0        7.469 
          29   -7.6562303     0.112035            0            0        7.469 
Loop time of 0.000884056 on 1 procs for 1 steps with 500 atoms

Pair  time (%) = 0.000838995 (94.9029)
Neigh time (%) = 0 (0)
Comm  time (%) = 2.47955e-05 (2.80475)
Outpt time (%) = 5.96046e-06 (0.674218)
Other time (%) = 1.43051e-05 (1.61812)

Nlocal:    500 ave 500 max 500 min
Histogram: 1 0 0 0 0 0 0 0 0 0
Nghost:    2183 ave 2183 max 2183 min
Histogram: 1 0 0 0 0 0 0 0 0 0
Neighs:    22886 ave 22886 max 22886 min
Histogram: 1 0 0 0 0 0 0 0 0 0

Total # of neighbors = 22886
Ave neighs/atom = 45.772
Neighbor list builds = 0
Dangerous builds = 0
WARNING: No fixes defined, atoms won't move (verlet.cpp:52)
Memory usage per processor = 1.7156 Mbytes
mystep PotEng Xy Xz Yz Lx 
          29   -7.6561882     0.112035            0            0        7.469 
Loop time of 0 on 1 procs for 0 steps with 500 atoms

Pair  time (%) = 0 (0)
Neigh time (%) = 0 (0)
Comm  time (%) = 0 (0)
Outpt time (%) = 0 (0)
Other time (%) = 0 (0)

Nlocal:    500 ave 500 max 500 min
Histogram: 1 0 0 0 0 0 0 0 0 0
Nghost:    2183 ave 2183 max 2183 min
Histogram: 1 0 0 0 0 0 0 0 0 0
Neighs:    22890 ave 22890 max 22890 min
Histogram: 1 0 0 0 0 0 0 0 0 0

Total # of neighbors = 22890
Ave neighs/atom = 45.78
Neighbor list builds = 0
Dangerous builds = 0
WARNING: Resetting reneighboring criteria during minimization (min.cpp:166)
Memory usage per processor = 2.43658 Mbytes
mystep PotEng Xy Xz Yz Lx 
          30   -7.6561882     0.112035            0            0        7.469 
          30   -7.6562055     0.112035            0            0        7.469 
Loop time of 0.275821 on 1 procs for 33 steps with 500 atoms

Minimization stats:
  Stopping criterion = energy tolerance
  Energy initial, next-to-last, final = 
         -7.6561881735     -7.65620537988     -7.65620545264
  Force two-norm initial, final = 1.41289 0.147839
  Force max component initial, final = 0.142981 0.0290804
  Final line search alpha, max atom move = 0.00390625 0.000113595
  Iterations, force evaluations = 33 315

Pair  time (%) = 0.263639 (95.5834)
Neigh time (%) = 0 (0)
Comm  time (%) = 0.00786018 (2.84974)
Outpt time (%) = 0 (0)
Other time (%) = 0.00432181 (1.56689)

Nlocal:    500 ave 500 max 500 min
Histogram: 1 0 0 0 0 0 0 0 0 0
Nghost:    2183 ave 2183 max 2183 min
Histogram: 1 0 0 0 0 0 0 0 0 0
Neighs:    22890 ave 22890 max 22890 min
Histogram: 1 0 0 0 0 0 0 0 0 0

Total # of neighbors = 22890
Ave neighs/atom = 45.78
Neighbor list builds = 0
Dangerous builds = 0
WARNING: No fixes defined, atoms won't move (verlet.cpp:52)
Memory usage per processor = 1.7156 Mbytes
mystep PotEng Xy Xz Yz Lx 
          30   -7.6562055     0.112035            0            0        7.469 
Loop time of 0 on 1 procs for 0 steps with 500 atoms

Pair  time (%) = 0 (0)
Neigh time (%) = 0 (0)
Comm  time (%) = 0 (0)
Outpt time (%) = 0 (0)
Other time (%) = 0 (0)

Nlocal:    500 ave 500 max 500 min
Histogram: 1 0 0 0 0 0 0 0 0 0
Nghost:    2183 ave 2183 max 2183 min
Histogram: 1 0 0 0 0 0 0 0 0 0
Neighs:    22891 ave 22891 max 22891 min
Histogram: 1 0 0 0 0 0 0 0 0 0

Total # of neighbors = 22891
Ave neighs/atom = 45.782
Neighbor list builds = 0
Dangerous builds = 0
Memory usage per processor = 1.7156 Mbytes
mystep PotEng Xy Xz Yz Lx 
          31   -7.6562055     0.112035            0            0        7.469 
          31   -7.6562055     0.119504            0            0        7.469 
Loop time of 0.000880003 on 1 procs for 1 steps with 500 atoms

Pair  time (%) = 0.000833988 (94.7711)
Neigh time (%) = 0 (0)
Comm  time (%) = 2.59876e-05 (2.95313)
Outpt time (%) = 5.96046e-06 (0.677323)
Other time (%) = 1.40667e-05 (1.59848)

Nlocal:    500 ave 500 max 500 min
Histogram: 1 0 0 0 0 0 0 0 0 0
Nghost:    2183 ave 2183 max 2183 min
Histogram: 1 0 0 0 0 0 0 0 0 0
Neighs:    22891 ave 22891 max 22891 min
Histogram: 1 0 0 0 0 0 0 0 0 0

Total # of neighbors = 22891
Ave neighs/atom = 45.782
Neighbor list builds = 0
Dangerous builds = 0
WARNING: No fixes defined, atoms won't move (verlet.cpp:52)
Memory usage per processor = 1.7156 Mbytes
mystep PotEng Xy Xz Yz Lx 
          31   -7.6561544     0.119504            0            0        7.469 
Loop time of 0 on 1 procs for 0 steps with 500 atoms

Pair  time (%) = 0 (0)
Neigh time (%) = 0 (0)
Comm  time (%) = 0 (0)
Outpt time (%) = 0 (0)
Other time (%) = 0 (0)

Nlocal:    500 ave 500 max 500 min
Histogram: 1 0 0 0 0 0 0 0 0 0
Nghost:    2183 ave 2183 max 2183 min
Histogram: 1 0 0 0 0 0 0 0 0 0
Neighs:    22890 ave 22890 max 22890 min
Histogram: 1 0 0 0 0 0 0 0 0 0

Total # of neighbors = 22890
Ave neighs/atom = 45.78
Neighbor list builds = 0
Dangerous builds = 0
WARNING: Resetting reneighboring criteria during minimization (min.cpp:166)
Memory usage per processor = 2.43658 Mbytes
mystep PotEng Xy Xz Yz Lx 
          32   -7.6561544     0.119504            0            0        7.469 
          32   -7.6561707     0.119504            0            0        7.469 
Loop time of 0.2242 on 1 procs for 27 steps with 500 atoms

Minimization stats:
  Stopping criterion = energy tolerance
  Energy initial, next-to-last, final = 
        -7.65615437602     -7.65617064895     -7.65617072471
  Force two-norm initial, final = 1.39434 0.264756
  Force max component initial, final = 0.140556 0.0435977
  Final line search alpha, max atom move = 0.00195312 8.51517e-05
  Iterations, force evaluations = 27 256

Pair  time (%) = 0.214303 (95.5857)
Neigh time (%) = 0 (0)
Comm  time (%) = 0.00637364 (2.84284)
Outpt time (%) = 0 (0)
Other time (%) = 0.00352311 (1.57141)

Nlocal:    500 ave 500 max 500 min
Histogram: 1 0 0 0 0 0 0 0 0 0
Nghost:    2183 ave 2183 max 2183 min
Histogram: 1 0 0 0 0 0 0 0 0 0
Neighs:    22890 ave 22890 max 22890 min
Histogram: 1 0 0 0 0 0 0 0 0 0

Total # of neighbors = 22890
Ave neighs/atom = 45.78
Neighbor list builds = 0
Dangerous builds = 0
WARNING: No fixes defined, atoms won't move (verlet.cpp:52)
Memory usage per processor = 1.7156 Mbytes
mystep PotEng Xy Xz Yz Lx 
          32   -7.6561707     0.119504            0            0        7.469 
Loop time of 0 on 1 procs for 0 steps with 500 atoms

Pair  time (%) = 0 (0)
Neigh time (%) = 0 (0)
Comm  time (%) = 0 (0)
Outpt time (%) = 0 (0)
Other time (%) = 0 (0)

Nlocal:    500 ave 500 max 500 min
Histogram: 1 0 0 0 0 0 0 0 0 0
Nghost:    2183 ave 2183 max 2183 min
Histogram: 1 0 0 0 0 0 0 0 0 0
Neighs:    22892 ave 22892 max 22892 min
Histogram: 1 0 0 0 0 0 0 0 0 0

Total # of neighbors = 22892
Ave neighs/atom = 45.784
Neighbor list builds = 0
Dangerous builds = 0
Memory usage per processor = 1.7156 Mbytes
mystep PotEng Xy Xz Yz Lx 
          33   -7.6561707     0.119504            0            0        7.469 
          33   -7.6561707     0.126973            0            0        7.469 
Loop time of 0.000877857 on 1 procs for 1 steps with 500 atoms

Pair  time (%) = 0.000833988 (95.0027)
Neigh time (%) = 0 (0)
Comm  time (%) = 2.5034e-05 (2.85171)
Outpt time (%) = 5.00679e-06 (0.570342)
Other time (%) = 1.38283e-05 (1.57523)

Nlocal:    500 ave 500 max 500 min
Histogram: 1 0 0 0 0 0 0 0 0 0
Nghost:    2183 ave 2183 max 2183 min
Histogram: 1 0 0 0 0 0 0 0 0 0
Neighs:    22892 ave 22892 max 22892 min
Histogram: 1 0 0 0 0 0 0 0 0 0

Total # of neighbors = 22892
Ave neighs/atom = 45.784
Neighbor list builds = 0
Dangerous builds = 0
WARNING: No fixes defined, atoms won't move (verlet.cpp:52)
Memory usage per processor = 1.7156 Mbytes
mystep PotEng Xy Xz Yz Lx 
          33   -7.6561102     0.126973            0            0        7.469 
Loop time of 0 on 1 procs for 0 steps with 500 atoms

Pair  time (%) = 0 (0)
Neigh time (%) = 0 (0)
Comm  time (%) = 0 (0)
Outpt time (%) = 0 (0)
Other time (%) = 0 (0)

Nlocal:    500 ave 500 max 500 min
Histogram: 1 0 0 0 0 0 0 0 0 0
Nghost:    2183 ave 2183 max 2183 min
Histogram: 1 0 0 0 0 0 0 0 0 0
Neighs:    22889 ave 22889 max 22889 min
Histogram: 1 0 0 0 0 0 0 0 0 0

Total # of neighbors = 22889
Ave neighs/atom = 45.778
Neighbor list builds = 0
Dangerous builds = 0
WARNING: Resetting reneighboring criteria during minimization (min.cpp:166)
Memory usage per processor = 2.43658 Mbytes
mystep PotEng Xy Xz Yz Lx 
          34   -7.6561102     0.126973            0            0        7.469 
          34   -7.6561267     0.126973            0            0        7.469 
Loop time of 0.230385 on 1 procs for 28 steps with 500 atoms

Minimization stats:
  Stopping criterion = energy tolerance
  Energy initial, next-to-last, final = 
        -7.65611022179      -7.6561266461     -7.65612670435
  Force two-norm initial, final = 1.39655 0.228955
  Force max component initial, final = 0.137268 0.050352
  Final line search alpha, max atom move = 0.0012501 6.2945e-05
  Iterations, force evaluations = 28 263

Pair  time (%) = 0.220247 (95.5996)
Neigh time (%) = 0 (0)
Comm  time (%) = 0.00652838 (2.83368)
Outpt time (%) = 0 (0)
Other time (%) = 0.00360942 (1.56669)

Nlocal:    500 ave 500 max 500 min
Histogram: 1 0 0 0 0 0 0 0 0 0
Nghost:    2183 ave 2183 max 2183 min
Histogram: 1 0 0 0 0 0 0 0 0 0
Neighs:    22889 ave 22889 max 22889 min
Histogram: 1 0 0 0 0 0 0 0 0 0

Total # of neighbors = 22889
Ave neighs/atom = 45.778
Neighbor list builds = 0
Dangerous builds = 0
WARNING: No fixes defined, atoms won't move (verlet.cpp:52)
Memory usage per processor = 1.7156 Mbytes
mystep PotEng Xy Xz Yz Lx 
          34   -7.6561267     0.126973            0            0        7.469 
Loop time of 0 on 1 procs for 0 steps with 500 atoms

Pair  time (%) = 0 (0)
Neigh time (%) = 0 (0)
Comm  time (%) = 0 (0)
Outpt time (%) = 0 (0)
Other time (%) = 0 (0)

Nlocal:    500 ave 500 max 500 min
Histogram: 1 0 0 0 0 0 0 0 0 0
Nghost:    2183 ave 2183 max 2183 min
Histogram: 1 0 0 0 0 0 0 0 0 0
Neighs:    22898 ave 22898 max 22898 min
Histogram: 1 0 0 0 0 0 0 0 0 0

Total # of neighbors = 22898
Ave neighs/atom = 45.796
Neighbor list builds = 0
Dangerous builds = 0
Memory usage per processor = 1.7156 Mbytes
mystep PotEng Xy Xz Yz Lx 
          35   -7.6561267     0.126973            0            0        7.469 
          35   -7.6561267     0.134442            0            0        7.469 
Loop time of 0.000879049 on 1 procs for 1 steps with 500 atoms

Pair  time (%) = 0.000834227 (94.901)
Neigh time (%) = 0 (0)
Comm  time (%) = 2.47955e-05 (2.82072)
Outpt time (%) = 5.00679e-06 (0.569569)
Other time (%) = 1.50204e-05 (1.70871)

Nlocal:    500 ave 500 max 500 min
Histogram: 1 0 0 0 0 0 0 0 0 0
Nghost:    2183 ave 2183 max 2183 min
Histogram: 1 0 0 0 0 0 0 0 0 0
Neighs:    22898 ave 22898 max 22898 min
Histogram: 1 0 0 0 0 0 0 0 0 0

Total # of neighbors = 22898
Ave neighs/atom = 45.796
Neighbor list builds = 0
Dangerous builds = 0
WARNING: No fixes defined, atoms won't move (verlet.cpp:52)
Memory usage per processor = 1.7156 Mbytes
mystep PotEng Xy Xz Yz Lx 
          35   -7.6560553     0.134442            0            0        7.469 
Loop time of 0 on 1 procs for 0 steps with 500 atoms

Pair  time (%) = 0 (0)
Neigh time (%) = 0 (0)
Comm  time (%) = 0 (0)
Outpt time (%) = 0 (0)
Other time (%) = 0 (0)

Nlocal:    500 ave 500 max 500 min
Histogram: 1 0 0 0 0 0 0 0 0 0
Nghost:    2183 ave 2183 max 2183 min
Histogram: 1 0 0 0 0 0 0 0 0 0
Neighs:    22895 ave 22895 max 22895 min
Histogram: 1 0 0 0 0 0 0 0 0 0

Total # of neighbors = 22895
Ave neighs/atom = 45.79
Neighbor list builds = 0
Dangerous builds = 0
WARNING: Resetting reneighboring criteria during minimization (min.cpp:166)
Memory usage per processor = 2.43658 Mbytes
mystep PotEng Xy Xz Yz Lx 
          36   -7.6560553     0.134442            0            0        7.469 
          36   -7.6560723     0.134442            0            0        7.469 
Loop time of 0.217772 on 1 procs for 26 steps with 500 atoms

Minimization stats:
  Stopping criterion = energy tolerance
  Energy initial, next-to-last, final = 
        -7.65605525184     -7.65607224653     -7.65607230922
  Force two-norm initial, final = 1.43961 0.113238
  Force max component initial, final = 0.155038 0.0211235
  Final line search alpha, max atom move = 0.00195312 4.12568e-05
  Iterations, force evaluations = 26 248

Pair  time (%) = 0.208105 (95.5609)
Neigh time (%) = 0 (0)
Comm  time (%) = 0.00622368 (2.85789)
Outpt time (%) = 0 (0)
Other time (%) = 0.00344348 (1.58123)

Nlocal:    500 ave 500 max 500 min
Histogram: 1 0 0 0 0 0 0 0 0 0
Nghost:    2183 ave 2183 max 2183 min
Histogram: 1 0 0 0 0 0 0 0 0 0
Neighs:    22895 ave 22895 max 22895 min
Histogram: 1 0 0 0 0 0 0 0 0 0

Total # of neighbors = 22895
Ave neighs/atom = 45.79
Neighbor list builds = 0
Dangerous builds = 0
WARNING: No fixes defined, atoms won't move (verlet.cpp:52)
Memory usage per processor = 1.7156 Mbytes
mystep PotEng Xy Xz Yz Lx 
          36   -7.6560723     0.134442            0            0        7.469 
Loop time of 0 on 1 procs for 0 steps with 500 atoms

Pair  time (%) = 0 (0)
Neigh time (%) = 0 (0)
Comm  time (%) = 0 (0)
Outpt time (%) = 0 (0)
Other time (%) = 0 (0)

Nlocal:    500 ave 500 max 500 min
Histogram: 1 0 0 0 0 0 0 0 0 0
Nghost:    2183 ave 2183 max 2183 min
Histogram: 1 0 0 0 0 0 0 0 0 0
Neighs:    22895 ave 22895 max 22895 min
Histogram: 1 0 0 0 0 0 0 0 0 0

Total # of neighbors = 22895
Ave neighs/atom = 45.79
Neighbor list builds = 0
Dangerous builds = 0
Memory usage per processor = 1.7156 Mbytes
mystep PotEng Xy Xz Yz Lx 
          37   -7.6560723     0.134442            0            0        7.469 
          37   -7.6560723     0.141911            0            0        7.469 
Loop time of 0.000883102 on 1 procs for 1 steps with 500 atoms

Pair  time (%) = 0.000833988 (94.4384)
Neigh time (%) = 0 (0)
Comm  time (%) = 2.59876e-05 (2.94276)
Outpt time (%) = 5.96046e-06 (0.674946)
Other time (%) = 1.71661e-05 (1.94384)

Nlocal:    500 ave 500 max 500 min
Histogram: 1 0 0 0 0 0 0 0 0 0
Nghost:    2183 ave 2183 max 2183 min
Histogram: 1 0 0 0 0 0 0 0 0 0
Neighs:    22895 ave 22895 max 22895 min
Histogram: 1 0 0 0 0 0 0 0 0 0

Total # of neighbors = 22895
Ave neighs/atom = 45.79
Neighbor list builds = 0
Dangerous builds = 0
WARNING: No fixes defined, atoms won't move (verlet.cpp:52)
Memory usage per processor = 1.7156 Mbytes
mystep PotEng Xy Xz Yz Lx 
          37   -7.6559919     0.141911            0            0        7.469 
Loop time of 0 on 1 procs for 0 steps with 500 atoms

Pair  time (%) = 0 (0)
Neigh time (%) = 0 (0)
Comm  time (%) = 0 (0)
Outpt time (%) = 0 (0)
Other time (%) = 0 (0)

Nlocal:    500 ave 500 max 500 min
Histogram: 1 0 0 0 0 0 0 0 0 0
Nghost:    2183 ave 2183 max 2183 min
Histogram: 1 0 0 0 0 0 0 0 0 0
Neighs:    22887 ave 22887 max 22887 min
Histogram: 1 0 0 0 0 0 0 0 0 0

Total # of neighbors = 22887
Ave neighs/atom = 45.774
Neighbor list builds = 0
Dangerous builds = 0
WARNING: Resetting reneighboring criteria during minimization (min.cpp:166)
Memory usage per processor = 2.43658 Mbytes
mystep PotEng Xy Xz Yz Lx 
          38   -7.6559919     0.141911            0            0        7.469 
          38   -7.6560078     0.141911            0            0        7.469 
Loop time of 0.175333 on 1 procs for 21 steps with 500 atoms

Minimization stats:
  Stopping criterion = energy tolerance
  Energy initial, next-to-last, final = 
        -7.65599190755     -7.65600771064     -7.65600777101
  Force two-norm initial, final = 1.3975 0.114009
  Force max component initial, final = 0.144155 0.0172178
  Final line search alpha, max atom move = 0.000976562 1.68142e-05
  Iterations, force evaluations = 21 199

Pair  time (%) = 0.167554 (95.5634)
Neigh time (%) = 0 (0)
Comm  time (%) = 0.00498939 (2.84566)
Outpt time (%) = 0 (0)
Other time (%) = 0.0027895 (1.59097)

Nlocal:    500 ave 500 max 500 min
Histogram: 1 0 0 0 0 0 0 0 0 0
Nghost:    2183 ave 2183 max 2183 min
Histogram: 1 0 0 0 0 0 0 0 0 0
Neighs:    22887 ave 22887 max 22887 min
Histogram: 1 0 0 0 0 0 0 0 0 0

Total # of neighbors = 22887
Ave neighs/atom = 45.774
Neighbor list builds = 0
Dangerous builds = 0
WARNING: No fixes defined, atoms won't move (verlet.cpp:52)
Memory usage per processor = 1.7156 Mbytes
mystep PotEng Xy Xz Yz Lx 
          38   -7.6560078     0.141911            0            0        7.469 
Loop time of 0 on 1 procs for 0 steps with 500 atoms

Pair  time (%) = 0 (0)
Neigh time (%) = 0 (0)
Comm  time (%) = 0 (0)
Outpt time (%) = 0 (0)
Other time (%) = 0 (0)

Nlocal:    500 ave 500 max 500 min
Histogram: 1 0 0 0 0 0 0 0 0 0
Nghost:    2183 ave 2183 max 2183 min
Histogram: 1 0 0 0 0 0 0 0 0 0
Neighs:    22893 ave 22893 max 22893 min
Histogram: 1 0 0 0 0 0 0 0 0 0

Total # of neighbors = 22893
Ave neighs/atom = 45.786
Neighbor list builds = 0
Dangerous builds = 0
Memory usage per processor = 1.7156 Mbytes
mystep PotEng Xy Xz Yz Lx 
          39   -7.6560078     0.141911            0            0        7.469 
          39   -7.6560078      0.14938            0            0        7.469 
Loop time of 0.00088191 on 1 procs for 1 steps with 500 atoms

Pair  time (%) = 0.000833988 (94.5661)
Neigh time (%) = 0 (0)
Comm  time (%) = 2.59876e-05 (2.94674)
Outpt time (%) = 5.96046e-06 (0.675858)
Other time (%) = 1.5974e-05 (1.8113)

Nlocal:    500 ave 500 max 500 min
Histogram: 1 0 0 0 0 0 0 0 0 0
Nghost:    2183 ave 2183 max 2183 min
Histogram: 1 0 0 0 0 0 0 0 0 0
Neighs:    22893 ave 22893 max 22893 min
Histogram: 1 0 0 0 0 0 0 0 0 0

Total # of neighbors = 22893
Ave neighs/atom = 45.786
Neighbor list builds = 0
Dangerous builds = 0
WARNING: No fixes defined, atoms won't move (verlet.cpp:52)
Memory usage per processor = 1.7156 Mbytes
mystep PotEng Xy Xz Yz Lx 
          39   -7.6559179      0.14938            0            0        7.469 
Loop time of 0 on 1 procs for 0 steps with 500 atoms

Pair  time (%) = 0 (0)
Neigh time (%) = 0 (0)
Comm  time (%) = 0 (0)
Outpt time (%) = 0 (0)
Other time (%) = 0 (0)

Nlocal:    500 ave 500 max 500 min
Histogram: 1 0 0 0 0 0 0 0 0 0
Nghost:    2183 ave 2183 max 2183 min
Histogram: 1 0 0 0 0 0 0 0 0 0
Neighs:    22884 ave 22884 max 22884 min
Histogram: 1 0 0 0 0 0 0 0 0 0

Total # of neighbors = 22884
Ave neighs/atom = 45.768
Neighbor list builds = 0
Dangerous builds = 0
WARNING: Resetting reneighboring criteria during minimization (min.cpp:166)
Memory usage per processor = 2.43658 Mbytes
mystep PotEng Xy Xz Yz Lx 
          40   -7.6559179      0.14938            0            0        7.469 
          40   -7.6559346      0.14938            0            0        7.469 
Loop time of 0.252629 on 1 procs for 30 steps with 500 atoms

Minimization stats:
  Stopping criterion = energy tolerance
  Energy initial, next-to-last, final = 
        -7.65591785137     -7.65593451038     -7.65593456939
  Force two-norm initial, final = 1.39183 0.191065
  Force max component initial, final = 0.142409 0.0306213
  Final line search alpha, max atom move = 0.00195312 5.98073e-05
  Iterations, force evaluations = 30 284

Pair  time (%) = 0.23793 (94.1816)
Neigh time (%) = 0.00348425 (1.3792)
Comm  time (%) = 0.00728703 (2.88448)
Outpt time (%) = 0 (0)
Other time (%) = 0.00392771 (1.55473)

Nlocal:    500 ave 500 max 500 min
Histogram: 1 0 0 0 0 0 0 0 0 0
Nghost:    2187 ave 2187 max 2187 min
Histogram: 1 0 0 0 0 0 0 0 0 0
Neighs:    22882 ave 22882 max 22882 min
Histogram: 1 0 0 0 0 0 0 0 0 0

Total # of neighbors = 22882
Ave neighs/atom = 45.764
Neighbor list builds = 2
Dangerous builds = 0
WARNING: No fixes defined, atoms won't move (verlet.cpp:52)
Memory usage per processor = 1.7156 Mbytes
mystep PotEng Xy Xz Yz Lx 
          40   -7.6559346      0.14938            0            0        7.469 
Loop time of 0 on 1 procs for 0 steps with 500 atoms

Pair  time (%) = 0 (0)
Neigh time (%) = 0 (0)
Comm  time (%) = 0 (0)
Outpt time (%) = 0 (0)
Other time (%) = 0 (0)

Nlocal:    500 ave 500 max 500 min
Histogram: 1 0 0 0 0 0 0 0 0 0
Nghost:    2187 ave 2187 max 2187 min
Histogram: 1 0 0 0 0 0 0 0 0 0
Neighs:    22886 ave 22886 max 22886 min
Histogram: 1 0 0 0 0 0 0 0 0 0

Total # of neighbors = 22886
Ave neighs/atom = 45.772
Neighbor list builds = 0
Dangerous builds = 0
Memory usage per processor = 1.7156 Mbytes
mystep PotEng Xy Xz Yz Lx 
          41   -7.6559346      0.14938            0            0        7.469 
          41   -7.6559346     0.156849            0            0        7.469 
Loop time of 0.000891924 on 1 procs for 1 steps with 500 atoms

Pair  time (%) = 0.000833988 (93.5044)
Neigh time (%) = 0 (0)
Comm  time (%) = 2.5034e-05 (2.80674)
Outpt time (%) = 1.69277e-05 (1.89789)
Other time (%) = 1.5974e-05 (1.79096)

Nlocal:    500 ave 500 max 500 min
Histogram: 1 0 0 0 0 0 0 0 0 0
Nghost:    2187 ave 2187 max 2187 min
Histogram: 1 0 0 0 0 0 0 0 0 0
Neighs:    22886 ave 22886 max 22886 min
Histogram: 1 0 0 0 0 0 0 0 0 0

Total # of neighbors = 22886
Ave neighs/atom = 45.772
Neighbor list builds = 0
Dangerous builds = 0
WARNING: No fixes defined, atoms won't move (verlet.cpp:52)
Memory usage per processor = 1.7156 Mbytes
mystep PotEng Xy Xz Yz Lx 
          41   -7.6558339     0.156849            0            0        7.469 
Loop time of 0 on 1 procs for 0 steps with 500 atoms

Pair  time (%) = 0 (0)
Neigh time (%) = 0 (0)
Comm  time (%) = 0 (0)
Outpt time (%) = 0 (0)
Other time (%) = 0 (0)

Nlocal:    500 ave 500 max 500 min
Histogram: 1 0 0 0 0 0 0 0 0 0
Nghost:    2187 ave 2187 max 2187 min
Histogram: 1 0 0 0 0 0 0 0 0 0
Neighs:    22884 ave 22884 max 22884 min
Histogram: 1 0 0 0 0 0 0 0 0 0

Total # of neighbors = 22884
Ave neighs/atom = 45.768
Neighbor list builds = 0
Dangerous builds = 0
WARNING: Resetting reneighboring criteria during minimization (min.cpp:166)
Memory usage per processor = 2.43658 Mbytes
mystep PotEng Xy Xz Yz Lx 
          42   -7.6558339     0.156849            0            0        7.469 
          42   -7.6558572     0.156849            0            0        7.469 
Loop time of 0.454843 on 1 procs for 55 steps with 500 atoms

Minimization stats:
  Stopping criterion = energy tolerance
  Energy initial, next-to-last, final = 
        -7.65583394762     -7.65585709531     -7.65585716955
  Force two-norm initial, final = 1.41772 0.187134
  Force max component initial, final = 0.150581 0.0336238
  Final line search alpha, max atom move = 0.00195312 6.56715e-05
  Iterations, force evaluations = 55 517

Pair  time (%) = 0.433001 (95.198)
Neigh time (%) = 0.00173903 (0.382335)
Comm  time (%) = 0.0130441 (2.86783)
Outpt time (%) = 0 (0)
Other time (%) = 0.00705862 (1.55188)

Nlocal:    500 ave 500 max 500 min
Histogram: 1 0 0 0 0 0 0 0 0 0
Nghost:    2178 ave 2178 max 2178 min
Histogram: 1 0 0 0 0 0 0 0 0 0
Neighs:    22881 ave 22881 max 22881 min
Histogram: 1 0 0 0 0 0 0 0 0 0

Total # of neighbors = 22881
Ave neighs/atom = 45.762
Neighbor list builds = 1
Dangerous builds = 0
WARNING: No fixes defined, atoms won't move (verlet.cpp:52)
Memory usage per processor = 1.7156 Mbytes
mystep PotEng Xy Xz Yz Lx 
          42   -7.6558572     0.156849            0            0        7.469 
Loop time of 0 on 1 procs for 0 steps with 500 atoms

Pair  time (%) = 0 (0)
Neigh time (%) = 0 (0)
Comm  time (%) = 0 (0)
Outpt time (%) = 0 (0)
Other time (%) = 0 (0)

Nlocal:    500 ave 500 max 500 min
Histogram: 1 0 0 0 0 0 0 0 0 0
Nghost:    2187 ave 2187 max 2187 min
Histogram: 1 0 0 0 0 0 0 0 0 0
Neighs:    22889 ave 22889 max 22889 min
Histogram: 1 0 0 0 0 0 0 0 0 0

Total # of neighbors = 22889
Ave neighs/atom = 45.778
Neighbor list builds = 0
Dangerous builds = 0
Memory usage per processor = 1.7156 Mbytes
mystep PotEng Xy Xz Yz Lx 
          43   -7.6558572     0.156849            0            0        7.469 
          43   -7.6558572     0.164318            0            0        7.469 
Loop time of 0.000879049 on 1 procs for 1 steps with 500 atoms

Pair  time (%) = 0.000833988 (94.8739)
Neigh time (%) = 0 (0)
Comm  time (%) = 2.5034e-05 (2.84784)
Outpt time (%) = 5.96046e-06 (0.678058)
Other time (%) = 1.40667e-05 (1.60022)

Nlocal:    500 ave 500 max 500 min
Histogram: 1 0 0 0 0 0 0 0 0 0
Nghost:    2187 ave 2187 max 2187 min
Histogram: 1 0 0 0 0 0 0 0 0 0
Neighs:    22889 ave 22889 max 22889 min
Histogram: 1 0 0 0 0 0 0 0 0 0

Total # of neighbors = 22889
Ave neighs/atom = 45.778
Neighbor list builds = 0
Dangerous builds = 0
WARNING: No fixes defined, atoms won't move (verlet.cpp:52)
Memory usage per processor = 1.7156 Mbytes
mystep PotEng Xy Xz Yz Lx 
          43   -7.6557488     0.164318            0            0        7.469 
Loop time of 1.19209e-06 on 1 procs for 0 steps with 500 atoms

Pair  time (%) = 0 (0)
Neigh time (%) = 0 (0)
Comm  time (%) = 0 (0)
Outpt time (%) = 0 (0)
Other time (%) = 1.19209e-06 (100)

Nlocal:    500 ave 500 max 500 min
Histogram: 1 0 0 0 0 0 0 0 0 0
Nghost:    2187 ave 2187 max 2187 min
Histogram: 1 0 0 0 0 0 0 0 0 0
Neighs:    22887 ave 22887 max 22887 min
Histogram: 1 0 0 0 0 0 0 0 0 0

Total # of neighbors = 22887
Ave neighs/atom = 45.774
Neighbor list builds = 0
Dangerous builds = 0
WARNING: Resetting reneighboring criteria during minimization (min.cpp:166)
Memory usage per processor = 2.43658 Mbytes
mystep PotEng Xy Xz Yz Lx 
          44   -7.6557488     0.164318            0            0        7.469 
          44   -7.6557638     0.164318            0            0        7.469 
Loop time of 0.209595 on 1 procs for 25 steps with 500 atoms

Minimization stats:
  Stopping criterion = energy tolerance
  Energy initial, next-to-last, final = 
        -7.65574884255     -7.65576371028     -7.65576377953
  Force two-norm initial, final = 1.40721 0.13659
  Force max component initial, final = 0.135131 0.0245025
  Final line search alpha, max atom move = 0.00195312 4.78564e-05
  Iterations, force evaluations = 25 239

Pair  time (%) = 0.20034 (95.5843)
Neigh time (%) = 0 (0)
Comm  time (%) = 0.00598216 (2.85415)
Outpt time (%) = 0 (0)
Other time (%) = 0.00327301 (1.56159)

Nlocal:    500 ave 500 max 500 min
Histogram: 1 0 0 0 0 0 0 0 0 0
Nghost:    2187 ave 2187 max 2187 min
Histogram: 1 0 0 0 0 0 0 0 0 0
Neighs:    22887 ave 22887 max 22887 min
Histogram: 1 0 0 0 0 0 0 0 0 0

Total # of neighbors = 22887
Ave neighs/atom = 45.774
Neighbor list builds = 0
Dangerous builds = 0
WARNING: No fixes defined, atoms won't move (verlet.cpp:52)
Memory usage per processor = 1.7156 Mbytes
mystep PotEng Xy Xz Yz Lx 
          44   -7.6557638     0.164318            0            0        7.469 
Loop time of 1.19209e-06 on 1 procs for 0 steps with 500 atoms

Pair  time (%) = 0 (0)
Neigh time (%) = 0 (0)
Comm  time (%) = 0 (0)
Outpt time (%) = 0 (0)
Other time (%) = 1.19209e-06 (100)

Nlocal:    500 ave 500 max 500 min
Histogram: 1 0 0 0 0 0 0 0 0 0
Nghost:    2187 ave 2187 max 2187 min
Histogram: 1 0 0 0 0 0 0 0 0 0
Neighs:    22881 ave 22881 max 22881 min
Histogram: 1 0 0 0 0 0 0 0 0 0

Total # of neighbors = 22881
Ave neighs/atom = 45.762
Neighbor list builds = 0
Dangerous builds = 0
Memory usage per processor = 1.7156 Mbytes
mystep PotEng Xy Xz Yz Lx 
          45   -7.6557638     0.164318            0            0        7.469 
          45   -7.6557638     0.171787            0            0        7.469 
Loop time of 0.000878811 on 1 procs for 1 steps with 500 atoms

Pair  time (%) = 0.000833988 (94.8996)
Neigh time (%) = 0 (0)
Comm  time (%) = 2.5034e-05 (2.84862)
Outpt time (%) = 5.96046e-06 (0.678242)
Other time (%) = 1.38283e-05 (1.57352)

Nlocal:    500 ave 500 max 500 min
Histogram: 1 0 0 0 0 0 0 0 0 0
Nghost:    2187 ave 2187 max 2187 min
Histogram: 1 0 0 0 0 0 0 0 0 0
Neighs:    22881 ave 22881 max 22881 min
Histogram: 1 0 0 0 0 0 0 0 0 0

Total # of neighbors = 22881
Ave neighs/atom = 45.762
Neighbor list builds = 0
Dangerous builds = 0
WARNING: No fixes defined, atoms won't move (verlet.cpp:52)
Memory usage per processor = 1.7156 Mbytes
mystep PotEng Xy Xz Yz Lx 
          45   -7.6556441     0.171787            0            0        7.469 
Loop time of 0 on 1 procs for 0 steps with 500 atoms

Pair  time (%) = 0 (0)
Neigh time (%) = 0 (0)
Comm  time (%) = 0 (0)
Outpt time (%) = 0 (0)
Other time (%) = 0 (0)

Nlocal:    500 ave 500 max 500 min
Histogram: 1 0 0 0 0 0 0 0 0 0
Nghost:    2187 ave 2187 max 2187 min
Histogram: 1 0 0 0 0 0 0 0 0 0
Neighs:    22879 ave 22879 max 22879 min
Histogram: 1 0 0 0 0 0 0 0 0 0

Total # of neighbors = 22879
Ave neighs/atom = 45.758
Neighbor list builds = 0
Dangerous builds = 0
WARNING: Resetting reneighboring criteria during minimization (min.cpp:166)
[...]

Pair  time (%) = 0.000838041 (94.795)
Neigh time (%) = 0 (0)
Comm  time (%) = 2.6226e-05 (2.96656)
Outpt time (%) = 5.96046e-06 (0.674218)
Other time (%) = 1.38283e-05 (1.56419)

Nlocal:    500 ave 500 max 500 min
Histogram: 1 0 0 0 0 0 0 0 0 0
Nghost:    2178 ave 2178 max 2178 min
Histogram: 1 0 0 0 0 0 0 0 0 0
Neighs:    22905 ave 22905 max 22905 min
Histogram: 1 0 0 0 0 0 0 0 0 0

Total # of neighbors = 22905
Ave neighs/atom = 45.81
Neighbor list builds = 0
Dangerous builds = 0
WARNING: No fixes defined, atoms won't move (verlet.cpp:52)
Memory usage per processor = 1.7156 Mbytes
mystep PotEng Xy Xz Yz Lx 
         789   -7.6547353    -0.037345            0            0        7.469 
Loop time of 0 on 1 procs for 0 steps with 500 atoms

Pair  time (%) = 0 (0)
Neigh time (%) = 0 (0)
Comm  time (%) = 0 (0)
Outpt time (%) = 0 (0)
Other time (%) = 0 (0)

Nlocal:    500 ave 500 max 500 min
Histogram: 1 0 0 0 0 0 0 0 0 0
Nghost:    2178 ave 2178 max 2178 min
Histogram: 1 0 0 0 0 0 0 0 0 0
Neighs:    22904 ave 22904 max 22904 min
Histogram: 1 0 0 0 0 0 0 0 0 0

Total # of neighbors = 22904
Ave neighs/atom = 45.808
Neighbor list builds = 0
Dangerous builds = 0
WARNING: Resetting reneighboring criteria during minimization (min.cpp:166)
Memory usage per processor = 2.43658 Mbytes
mystep PotEng Xy Xz Yz Lx 
         790   -7.6547353    -0.037345            0            0        7.469 
         790    -7.654753    -0.037345            0            0        7.469 
Loop time of 0.204846 on 1 procs for 24 steps with 500 atoms

Minimization stats:
  Stopping criterion = energy tolerance
  Energy initial, next-to-last, final = 
         -7.6547353392     -7.65475293839     -7.65475300639
  Force two-norm initial, final = 1.47215 0.137248
  Force max component initial, final = 0.170327 0.0344892
  Final line search alpha, max atom move = 0.00195312 6.73618e-05
  Iterations, force evaluations = 24 228

Pair  time (%) = 0.192071 (93.7636)
Neigh time (%) = 0.0034759 (1.69684)
Comm  time (%) = 0.00609589 (2.97584)
Outpt time (%) = 0 (0)
Other time (%) = 0.00320315 (1.56369)

Nlocal:    500 ave 500 max 500 min
Histogram: 1 0 0 0 0 0 0 0 0 0
Nghost:    2178 ave 2178 max 2178 min
Histogram: 1 0 0 0 0 0 0 0 0 0
Neighs:    22893 ave 22893 max 22893 min
Histogram: 1 0 0 0 0 0 0 0 0 0

Total # of neighbors = 22893
Ave neighs/atom = 45.786
Neighbor list builds = 2
Dangerous builds = 0
WARNING: No fixes defined, atoms won't move (verlet.cpp:52)
Memory usage per processor = 1.7156 Mbytes
mystep PotEng Xy Xz Yz Lx 
         790    -7.654753    -0.037345            0            0        7.469 
Loop time of 0 on 1 procs for 0 steps with 500 atoms

Pair  time (%) = 0 (0)
Neigh time (%) = 0 (0)
Comm  time (%) = 0 (0)
Outpt time (%) = 0 (0)
Other time (%) = 0 (0)

Nlocal:    500 ave 500 max 500 min
Histogram: 1 0 0 0 0 0 0 0 0 0
Nghost:    2178 ave 2178 max 2178 min
Histogram: 1 0 0 0 0 0 0 0 0 0
Neighs:    22901 ave 22901 max 22901 min
Histogram: 1 0 0 0 0 0 0 0 0 0

Total # of neighbors = 22901
Ave neighs/atom = 45.802
Neighbor list builds = 0
Dangerous builds = 0
Memory usage per processor = 1.7156 Mbytes
mystep PotEng Xy Xz Yz Lx 
         791    -7.654753    -0.037345            0            0        7.469 
         791    -7.654753    -0.029876            0            0        7.469 
Loop time of 0.000884056 on 1 procs for 1 steps with 500 atoms

Pair  time (%) = 0.000838041 (94.795)
Neigh time (%) = 0 (0)
Comm  time (%) = 2.59876e-05 (2.93959)
Outpt time (%) = 6.19888e-06 (0.701187)
Other time (%) = 1.38283e-05 (1.56419)

Nlocal:    500 ave 500 max 500 min
Histogram: 1 0 0 0 0 0 0 0 0 0
Nghost:    2178 ave 2178 max 2178 min
Histogram: 1 0 0 0 0 0 0 0 0 0
Neighs:    22901 ave 22901 max 22901 min
Histogram: 1 0 0 0 0 0 0 0 0 0

Total # of neighbors = 22901
Ave neighs/atom = 45.802
Neighbor list builds = 0
Dangerous builds = 0
WARNING: No fixes defined, atoms won't move (verlet.cpp:52)
Memory usage per processor = 1.7156 Mbytes
mystep PotEng Xy Xz Yz Lx 
         791   -7.6547678    -0.029876            0            0        7.469 
Loop time of 0 on 1 procs for 0 steps with 500 atoms

Pair  time (%) = 0 (0)
Neigh time (%) = 0 (0)
Comm  time (%) = 0 (0)
Outpt time (%) = 0 (0)
Other time (%) = 0 (0)

Nlocal:    500 ave 500 max 500 min
Histogram: 1 0 0 0 0 0 0 0 0 0
Nghost:    2178 ave 2178 max 2178 min
Histogram: 1 0 0 0 0 0 0 0 0 0
Neighs:    22899 ave 22899 max 22899 min
Histogram: 1 0 0 0 0 0 0 0 0 0

Total # of neighbors = 22899
Ave neighs/atom = 45.798
Neighbor list builds = 0
Dangerous builds = 0
WARNING: Resetting reneighboring criteria during minimization (min.cpp:166)
Memory usage per processor = 2.43658 Mbytes
mystep PotEng Xy Xz Yz Lx 
         792   -7.6547678    -0.029876            0            0        7.469 
         792    -7.654784    -0.029876            0            0        7.469 
Loop time of 0.217173 on 1 procs for 25 steps with 500 atoms

Minimization stats:
  Stopping criterion = energy tolerance
  Energy initial, next-to-last, final = 
        -7.65476778658     -7.65478392811      -7.6547839745
  Force two-norm initial, final = 1.42618 0.112982
  Force max component initial, final = 0.170501 0.0218799
  Final line search alpha, max atom move = 0.00195312 4.27343e-05
  Iterations, force evaluations = 25 238

Pair  time (%) = 0.200467 (92.3075)
Neigh time (%) = 0.00693512 (3.19336)
Comm  time (%) = 0.00645566 (2.97259)
Outpt time (%) = 0 (0)
Other time (%) = 0.00331521 (1.52653)

Nlocal:    500 ave 500 max 500 min
Histogram: 1 0 0 0 0 0 0 0 0 0
Nghost:    2178 ave 2178 max 2178 min
Histogram: 1 0 0 0 0 0 0 0 0 0
Neighs:    22897 ave 22897 max 22897 min
Histogram: 1 0 0 0 0 0 0 0 0 0

Total # of neighbors = 22897
Ave neighs/atom = 45.794
Neighbor list builds = 4
Dangerous builds = 1
WARNING: No fixes defined, atoms won't move (verlet.cpp:52)
Memory usage per processor = 1.7156 Mbytes
mystep PotEng Xy Xz Yz Lx 
         792    -7.654784    -0.029876            0            0        7.469 
Loop time of 0 on 1 procs for 0 steps with 500 atoms

Pair  time (%) = 0 (0)
Neigh time (%) = 0 (0)
Comm  time (%) = 0 (0)
Outpt time (%) = 0 (0)
Other time (%) = 0 (0)

Nlocal:    500 ave 500 max 500 min
Histogram: 1 0 0 0 0 0 0 0 0 0
Nghost:    2178 ave 2178 max 2178 min
Histogram: 1 0 0 0 0 0 0 0 0 0
Neighs:    22898 ave 22898 max 22898 min
Histogram: 1 0 0 0 0 0 0 0 0 0

Total # of neighbors = 22898
Ave neighs/atom = 45.796
Neighbor list builds = 0
Dangerous builds = 0
Memory usage per processor = 1.7156 Mbytes
mystep PotEng Xy Xz Yz Lx 
         793    -7.654784    -0.029876            0            0        7.469 
         793    -7.654784    -0.022407            0            0        7.469 
Loop time of 0.000887156 on 1 procs for 1 steps with 500 atoms

Pair  time (%) = 0.000843048 (95.0282)
Neigh time (%) = 0 (0)
Comm  time (%) = 2.52724e-05 (2.8487)
Outpt time (%) = 7.15256e-06 (0.806235)
Other time (%) = 1.16825e-05 (1.31685)

Nlocal:    500 ave 500 max 500 min
Histogram: 1 0 0 0 0 0 0 0 0 0
Nghost:    2178 ave 2178 max 2178 min
Histogram: 1 0 0 0 0 0 0 0 0 0
Neighs:    22898 ave 22898 max 22898 min
Histogram: 1 0 0 0 0 0 0 0 0 0

Total # of neighbors = 22898
Ave neighs/atom = 45.796
Neighbor list builds = 0
Dangerous builds = 0
WARNING: No fixes defined, atoms won't move (verlet.cpp:52)
Memory usage per processor = 1.7156 Mbytes
mystep PotEng Xy Xz Yz Lx 
         793   -7.6547873    -0.022407            0            0        7.469 
Loop time of 0 on 1 procs for 0 steps with 500 atoms

Pair  time (%) = 0 (0)
Neigh time (%) = 0 (0)
Comm  time (%) = 0 (0)
Outpt time (%) = 0 (0)
Other time (%) = 0 (0)

Nlocal:    500 ave 500 max 500 min
Histogram: 1 0 0 0 0 0 0 0 0 0
Nghost:    2178 ave 2178 max 2178 min
Histogram: 1 0 0 0 0 0 0 0 0 0
Neighs:    22901 ave 22901 max 22901 min
Histogram: 1 0 0 0 0 0 0 0 0 0

Total # of neighbors = 22901
Ave neighs/atom = 45.802
Neighbor list builds = 0
Dangerous builds = 0
WARNING: Resetting reneighboring criteria during minimization (min.cpp:166)
Memory usage per processor = 2.43658 Mbytes
mystep PotEng Xy Xz Yz Lx 
         794   -7.6547873    -0.022407            0            0        7.469 
         794   -7.6548013    -0.022407            0            0        7.469 
Loop time of 0.145017 on 1 procs for 17 steps with 500 atoms

Minimization stats:
  Stopping criterion = energy tolerance
  Energy initial, next-to-last, final = 
        -7.65478727789     -7.65480124494      -7.6548013065
  Force two-norm initial, final = 1.39825 0.190277
  Force max component initial, final = 0.15907 0.0329274
  Final line search alpha, max atom move = 0.000976562 3.21557e-05
  Iterations, force evaluations = 17 164

Pair  time (%) = 0.138506 (95.5102)
Neigh time (%) = 0 (0)
Comm  time (%) = 0.00420046 (2.89653)
Outpt time (%) = 0 (0)
Other time (%) = 0.00231051 (1.59327)

Nlocal:    500 ave 500 max 500 min
Histogram: 1 0 0 0 0 0 0 0 0 0
Nghost:    2178 ave 2178 max 2178 min
Histogram: 1 0 0 0 0 0 0 0 0 0
Neighs:    22901 ave 22901 max 22901 min
Histogram: 1 0 0 0 0 0 0 0 0 0

Total # of neighbors = 22901
Ave neighs/atom = 45.802
Neighbor list builds = 0
Dangerous builds = 0
WARNING: No fixes defined, atoms won't move (verlet.cpp:52)
Memory usage per processor = 1.7156 Mbytes
mystep PotEng Xy Xz Yz Lx 
         794   -7.6548013    -0.022407            0            0        7.469 
Loop time of 9.53674e-07 on 1 procs for 0 steps with 500 atoms

Pair  time (%) = 0 (0)
Neigh time (%) = 0 (0)
Comm  time (%) = 0 (0)
Outpt time (%) = 0 (0)
Other time (%) = 9.53674e-07 (100)

Nlocal:    500 ave 500 max 500 min
Histogram: 1 0 0 0 0 0 0 0 0 0
Nghost:    2178 ave 2178 max 2178 min
Histogram: 1 0 0 0 0 0 0 0 0 0
Neighs:    22898 ave 22898 max 22898 min
Histogram: 1 0 0 0 0 0 0 0 0 0

Total # of neighbors = 22898
Ave neighs/atom = 45.796
Neighbor list builds = 0
Dangerous builds = 0
Memory usage per processor = 1.7156 Mbytes
mystep PotEng Xy Xz Yz Lx 
         795   -7.6548013    -0.022407            0            0        7.469 
         795   -7.6548013    -0.014938            0            0        7.469 
Loop time of 0.00088191 on 1 procs for 1 steps with 500 atoms

Pair  time (%) = 0.000838995 (95.1338)
Neigh time (%) = 0 (0)
Comm  time (%) = 2.5034e-05 (2.83861)
Outpt time (%) = 5.00679e-06 (0.567721)
Other time (%) = 1.28746e-05 (1.45985)

Nlocal:    500 ave 500 max 500 min
Histogram: 1 0 0 0 0 0 0 0 0 0
Nghost:    2178 ave 2178 max 2178 min
Histogram: 1 0 0 0 0 0 0 0 0 0
Neighs:    22898 ave 22898 max 22898 min
Histogram: 1 0 0 0 0 0 0 0 0 0

Total # of neighbors = 22898
Ave neighs/atom = 45.796
Neighbor list builds = 0
Dangerous builds = 0
WARNING: No fixes defined, atoms won't move (verlet.cpp:52)
Memory usage per processor = 1.7156 Mbytes
mystep PotEng Xy Xz Yz Lx 
         795   -7.6547917    -0.014938            0            0        7.469 
Loop time of 0 on 1 procs for 0 steps with 500 atoms

Pair  time (%) = 0 (0)
Neigh time (%) = 0 (0)
Comm  time (%) = 0 (0)
Outpt time (%) = 0 (0)
Other time (%) = 0 (0)

Nlocal:    500 ave 500 max 500 min
Histogram: 1 0 0 0 0 0 0 0 0 0
Nghost:    2178 ave 2178 max 2178 min
Histogram: 1 0 0 0 0 0 0 0 0 0
Neighs:    22893 ave 22893 max 22893 min
Histogram: 1 0 0 0 0 0 0 0 0 0

Total # of neighbors = 22893
Ave neighs/atom = 45.786
Neighbor list builds = 0
Dangerous builds = 0
WARNING: Resetting reneighboring criteria during minimization (min.cpp:166)
Memory usage per processor = 2.43658 Mbytes
mystep PotEng Xy Xz Yz Lx 
         796   -7.6547917    -0.014938            0            0        7.469 
         796   -7.6548097    -0.014938            0            0        7.469 
Loop time of 0.243086 on 1 procs for 29 steps with 500 atoms

Minimization stats:
  Stopping criterion = energy tolerance
  Energy initial, next-to-last, final = 
        -7.65479170653     -7.65480968085     -7.65480974645
  Force two-norm initial, final = 1.45133 0.175751
  Force max component initial, final = 0.170307 0.036357
  Final line search alpha, max atom move = 0.00390625 0.000142019
  Iterations, force evaluations = 29 276

Pair  time (%) = 0.232323 (95.5724)
Neigh time (%) = 0 (0)
Comm  time (%) = 0.0069716 (2.86796)
Outpt time (%) = 0 (0)
Other time (%) = 0.00379133 (1.55967)

Nlocal:    500 ave 500 max 500 min
Histogram: 1 0 0 0 0 0 0 0 0 0
Nghost:    2178 ave 2178 max 2178 min
Histogram: 1 0 0 0 0 0 0 0 0 0
Neighs:    22893 ave 22893 max 22893 min
Histogram: 1 0 0 0 0 0 0 0 0 0

Total # of neighbors = 22893
Ave neighs/atom = 45.786
Neighbor list builds = 0
Dangerous builds = 0
WARNING: No fixes defined, atoms won't move (verlet.cpp:52)
Memory usage per processor = 1.7156 Mbytes
mystep PotEng Xy Xz Yz Lx 
         796   -7.6548097    -0.014938            0            0        7.469 
Loop time of 0 on 1 procs for 0 steps with 500 atoms

Pair  time (%) = 0 (0)
Neigh time (%) = 0 (0)
Comm  time (%) = 0 (0)
Outpt time (%) = 0 (0)
Other time (%) = 0 (0)

Nlocal:    500 ave 500 max 500 min
Histogram: 1 0 0 0 0 0 0 0 0 0
Nghost:    2182 ave 2182 max 2182 min
Histogram: 1 0 0 0 0 0 0 0 0 0
Neighs:    22892 ave 22892 max 22892 min
Histogram: 1 0 0 0 0 0 0 0 0 0

Total # of neighbors = 22892
Ave neighs/atom = 45.784
Neighbor list builds = 0
Dangerous builds = 0
Memory usage per processor = 1.7156 Mbytes
mystep PotEng Xy Xz Yz Lx 
         797   -7.6548097    -0.014938            0            0        7.469 
         797   -7.6548097    -0.007469            0            0        7.469 
Loop time of 0.000884056 on 1 procs for 1 steps with 500 atoms

Pair  time (%) = 0.000837803 (94.7681)
Neigh time (%) = 0 (0)
Comm  time (%) = 2.5034e-05 (2.83172)
Outpt time (%) = 5.96046e-06 (0.674218)
Other time (%) = 1.52588e-05 (1.726)

Nlocal:    500 ave 500 max 500 min
Histogram: 1 0 0 0 0 0 0 0 0 0
Nghost:    2182 ave 2182 max 2182 min
Histogram: 1 0 0 0 0 0 0 0 0 0
Neighs:    22892 ave 22892 max 22892 min
Histogram: 1 0 0 0 0 0 0 0 0 0

Total # of neighbors = 22892
Ave neighs/atom = 45.784
Neighbor list builds = 0
Dangerous builds = 0
WARNING: No fixes defined, atoms won't move (verlet.cpp:52)
Memory usage per processor = 1.7156 Mbytes
mystep PotEng Xy Xz Yz Lx 
         797   -7.6547903    -0.007469            0            0        7.469 
Loop time of 0 on 1 procs for 0 steps with 500 atoms

Pair  time (%) = 0 (0)
Neigh time (%) = 0 (0)
Comm  time (%) = 0 (0)
Outpt time (%) = 0 (0)
Other time (%) = 0 (0)

Nlocal:    500 ave 500 max 500 min
Histogram: 1 0 0 0 0 0 0 0 0 0
Nghost:    2182 ave 2182 max 2182 min
Histogram: 1 0 0 0 0 0 0 0 0 0
Neighs:    22887 ave 22887 max 22887 min
Histogram: 1 0 0 0 0 0 0 0 0 0

Total # of neighbors = 22887
Ave neighs/atom = 45.774
Neighbor list builds = 0
Dangerous builds = 0
WARNING: Resetting reneighboring criteria during minimization (min.cpp:166)
Memory usage per processor = 2.43658 Mbytes
mystep PotEng Xy Xz Yz Lx 
         798   -7.6547903    -0.007469            0            0        7.469 
         798   -7.6548048    -0.007469            0            0        7.469 
Loop time of 0.202576 on 1 procs for 24 steps with 500 atoms

Minimization stats:
  Stopping criterion = energy tolerance
  Energy initial, next-to-last, final = 
        -7.65479029056      -7.6548047543     -7.65480482928
  Force two-norm initial, final = 1.44046 0.214641
  Force max component initial, final = 0.168796 0.0813623
  Final line search alpha, max atom move = 0.00390625 0.000317822
  Iterations, force evaluations = 24 230

Pair  time (%) = 0.193591 (95.5648)
Neigh time (%) = 0 (0)
Comm  time (%) = 0.00584102 (2.88337)
Outpt time (%) = 0 (0)
Other time (%) = 0.00314355 (1.55179)

Nlocal:    500 ave 500 max 500 min
Histogram: 1 0 0 0 0 0 0 0 0 0
Nghost:    2182 ave 2182 max 2182 min
Histogram: 1 0 0 0 0 0 0 0 0 0
Neighs:    22887 ave 22887 max 22887 min
Histogram: 1 0 0 0 0 0 0 0 0 0

Total # of neighbors = 22887
Ave neighs/atom = 45.774
Neighbor list builds = 0
Dangerous builds = 0
WARNING: No fixes defined, atoms won't move (verlet.cpp:52)
Memory usage per processor = 1.7156 Mbytes
mystep PotEng Xy Xz Yz Lx 
         798   -7.6548048    -0.007469            0            0        7.469 
Loop time of 0 on 1 procs for 0 steps with 500 atoms

Pair  time (%) = 0 (0)
Neigh time (%) = 0 (0)
Comm  time (%) = 0 (0)
Outpt time (%) = 0 (0)
Other time (%) = 0 (0)

Nlocal:    500 ave 500 max 500 min
Histogram: 1 0 0 0 0 0 0 0 0 0
Nghost:    2182 ave 2182 max 2182 min
Histogram: 1 0 0 0 0 0 0 0 0 0
Neighs:    22890 ave 22890 max 22890 min
Histogram: 1 0 0 0 0 0 0 0 0 0

Total # of neighbors = 22890
Ave neighs/atom = 45.78
Neighbor list builds = 0
Dangerous builds = 0
Memory usage per processor = 1.7156 Mbytes
mystep PotEng Xy Xz Yz Lx 
         799   -7.6548048    -0.007469            0            0        7.469 
         799   -7.6548048 -8.8817842e-16            0            0        7.469 
Loop time of 0.000885963 on 1 procs for 1 steps with 500 atoms

Pair  time (%) = 0.000840902 (94.9139)
Neigh time (%) = 0 (0)
Comm  time (%) = 2.5034e-05 (2.82562)
Outpt time (%) = 6.91414e-06 (0.780409)
Other time (%) = 1.3113e-05 (1.48009)

Nlocal:    500 ave 500 max 500 min
Histogram: 1 0 0 0 0 0 0 0 0 0
Nghost:    2182 ave 2182 max 2182 min
Histogram: 1 0 0 0 0 0 0 0 0 0
Neighs:    22890 ave 22890 max 22890 min
Histogram: 1 0 0 0 0 0 0 0 0 0

Total # of neighbors = 22890
Ave neighs/atom = 45.78
Neighbor list builds = 0
Dangerous builds = 0
WARNING: No fixes defined, atoms won't move (verlet.cpp:52)
Memory usage per processor = 1.7156 Mbytes
mystep PotEng Xy Xz Yz Lx 
         799   -7.6547744 -8.8817842e-16            0            0        7.469 
Loop time of 0 on 1 procs for 0 steps with 500 atoms

Pair  time (%) = 0 (0)
Neigh time (%) = 0 (0)
Comm  time (%) = 0 (0)
Outpt time (%) = 0 (0)
Other time (%) = 0 (0)

Nlocal:    500 ave 500 max 500 min
Histogram: 1 0 0 0 0 0 0 0 0 0
Nghost:    2182 ave 2182 max 2182 min
Histogram: 1 0 0 0 0 0 0 0 0 0
Neighs:    22888 ave 22888 max 22888 min
Histogram: 1 0 0 0 0 0 0 0 0 0

Total # of neighbors = 22888
Ave neighs/atom = 45.776
Neighbor list builds = 0
Dangerous builds = 0
WARNING: Resetting reneighboring criteria during minimization (min.cpp:166)
Memory usage per processor = 2.43658 Mbytes
mystep PotEng Xy Xz Yz Lx 
         800   -7.6547744 -8.8817842e-16            0            0        7.469 
         800   -7.6547876 -8.8817842e-16            0            0        7.469 
Loop time of 0.168509 on 1 procs for 20 steps with 500 atoms

Minimization stats:
  Stopping criterion = energy tolerance
  Energy initial, next-to-last, final = 
        -7.65477435784      -7.6547875209      -7.6547875812
  Force two-norm initial, final = 1.37188 0.149495
  Force max component initial, final = 0.158024 0.0349836
  Final line search alpha, max atom move = 0.00195312 6.83273e-05
  Iterations, force evaluations = 20 191

Pair  time (%) = 0.160954 (95.5168)
Neigh time (%) = 0 (0)
Comm  time (%) = 0.00488639 (2.89978)
Outpt time (%) = 0 (0)
Other time (%) = 0.00266814 (1.58338)

Nlocal:    500 ave 500 max 500 min
Histogram: 1 0 0 0 0 0 0 0 0 0
Nghost:    2182 ave 2182 max 2182 min
Histogram: 1 0 0 0 0 0 0 0 0 0
Neighs:    22888 ave 22888 max 22888 min
Histogram: 1 0 0 0 0 0 0 0 0 0

Total # of neighbors = 22888
Ave neighs/atom = 45.776
Neighbor list builds = 0
Dangerous builds = 0
WARNING: No fixes defined, atoms won't move (verlet.cpp:52)
Memory usage per processor = 1.7156 Mbytes
mystep PotEng Xy Xz Yz Lx 
         800   -7.6547876 -8.8817842e-16            0            0        7.469 
Loop time of 9.53674e-07 on 1 procs for 0 steps with 500 atoms

Pair  time (%) = 0 (0)
Neigh time (%) = 0 (0)
Comm  time (%) = 0 (0)
Outpt time (%) = 0 (0)
Other time (%) = 9.53674e-07 (100)

Nlocal:    500 ave 500 max 500 min
Histogram: 1 0 0 0 0 0 0 0 0 0
Nghost:    2182 ave 2182 max 2182 min
Histogram: 1 0 0 0 0 0 0 0 0 0
Neighs:    22887 ave 22887 max 22887 min
Histogram: 1 0 0 0 0 0 0 0 0 0

Total # of neighbors = 22887
Ave neighs/atom = 45.774
Neighbor list builds = 0
Dangerous builds = 0
