ITEM: TIMESTEP
1
ITEM: NUMBER OF ATOMS
500
ITEM: BOX BOUNDS xy xz yz pp pp pp
-3.7345 3.7345 -8.88178e-16
-3.7345 3.7345 0
-3.7345 3.7345 0
ITEM: ATOMS type xu yu zu 
1 3.20108 -1.90015 -3.58399 
1 -1.64872 -1.18926 -3.58688 
1 -2.96293 -2.08387 3.42199 
1 2.7988 -1.29183 -1.00242 
1 0.880318 2.06739 2.99301 
1 3.20654 2.43641 2.22646 
1 2.62839 -0.691613 2.80859 
1 -0.655171 3.26809 -2.04889 
1 2.72183 0.67537 -1.7271 
1 -3.14157 1.61788 -0.653883 
1 0.85026 -3.12773 3.39012 
1 0.722146 -3.00726 -0.957778 
1 -1.28207 2.48706 0.231682 
1 -1.02704 -1.96928 2.13854 
1 -2.64568 0.258132 -3.4465 
1 -2.55599 -1.20042 1.25975 
1 -1.44769 -2.89316 3.17492 
1 -0.760069 0.326813 -2.86117 
1 1.02601 -0.872084 1.17619 
1 0.339006 -0.493341 -1.83884 
1 1.30951 3.61612 -3.42599 
1 3.5465 2.34315 -0.830056 
1 -2.03754 1.98628 0.857772 
1 -1.41235 -0.745269 0.0981371 
1 3.65105 2.19723 -1.85452 
1 2.82572 3.01489 -0.365729 
1 1.07639 0.145988 1.58905 
1 1.58777 -2.38852 3.15668 
1 -0.684789 3.42642 -3.12503 
1 3.14885 -0.274583 -1.28736 
1 0.79456 -2.2282 -0.146239 
1 -2.14025 0.956457 0.925142 
1 -0.0264336 -1.39006 -1.43231 
1 1.02056 1.0879 2.29936 
1 1.83595 1.83651 -2.87953 
1 1.81819 -0.762634 0.421305 
1 2.47839 -1.55168 0.061322 
1 1.71861 -1.93006 -2.4098 
1 -3.25229 0.338772 2.21041 
1 -0.916294 3.15665 1.03448 
1 -1.83896 -2.2985 1.55892 
1 -3.1978 -2.00224 -1.79458 
1 -2.7195 1.25205 2.17503 
1 -3.36165 1.08747 -3.48051 
1 2.66521 1.6859 1.71746 
1 0.842987 -1.92952 -1.15266 
1 0.479708 -0.680457 3.3476 
1 -0.877473 -0.922595 2.04773 
1 3.72839 -0.292269 -2.18873 
1 3.21803 -0.202831 1.52691 
1 -0.869235 0.0991807 1.58242 
1 0.499126 -3.21298 0.0568156 
1 -1.2067 1.74238 -0.537474 
1 -0.420966 1.09305 -2.20932 
1 -2.27118 -0.549527 -2.85011 
1 3.40951 -0.325177 3.42397 
1 -0.938119 -1.76979 -1.79354 
1 3.18169 1.62371 -3.5096 
1 0.0268753 -3.15018 2.68134 
1 -1.29995 -2.44452 -2.51326 
1 -3.28469 3.38956 3.68267 
1 -1.12208 0.274712 -1.86318 
1 -3.30931 -1.21621 -2.53989 
1 1.89046 3.50912 -1.80011 
1 -1.02871 2.34152 2.3031 
1 1.82273 2.91116 -0.872704 
1 0.865903 2.1274 1.91357 
1 -2.23233 1.89992 -1.22667 
1 0.967453 1.07526 3.39861 
1 1.90025 0.879727 1.68376 
1 2.85595 2.00431 -2.5327 
1 -0.170668 -2.4259 0.329473 
1 -0.971975 -3.02481 2.19548 
1 3.65485 -1.86997 -0.757616 
1 1.70879 1.8892 1.28705 
1 1.66611 0.837311 -0.453881 
1 3.25069 3.5525 0.791208 
1 -2.67067 3.06226 2.16155 
1 2.46078 0.110477 2.18485 
1 1.17537 0.226399 -1.95107 
1 -2.1989 1.89449 -0.16313 
1 0.117487 0.460101 -0.258499 
1 -0.213304 -0.196804 2.39753 
1 -1.40632 3.58319 0.0424048 
1 -1.83512 2.64073 1.63552 
1 3.27612 3.59438 -3.18859 
1 -1.92462 1.06276 -3.64241 
1 2.20199 2.63967 1.85243 
1 -0.557063 -0.155722 3.39285 
1 -0.1364 3.06665 -1.13423 
1 -1.02139 2.40359 -1.44338 
1 -1.22148 -3.1163 1.10803 
1 3.50192 -3.29177 3.42477 
1 0.827344 -1.43393 -2.09268 
1 3.31403 -0.897029 -3.11602 
1 3.55253 0.0505526 0.428438 
1 -3.64435 3.0318 1.55431 
1 0.187944 3.16574 0.808148 
1 -0.100898 2.58711 2.8084 
1 -0.125512 1.95791 -2.81511 
1 -2.23029 2.92441 3.57977 
1 -3.6357 3.33447 -0.52804 
1 2.19709 3.60961 0.264096 
1 -2.8983 2.59794 -3.15507 
1 -2.51317 -2.18139 0.77666 
1 -1.76338 2.92988 -1.97662 
1 2.81944 -0.985946 -2.0403 
1 2.91447 3.41856 1.80476 
1 -1.17113 -2.31189 -0.826651 
1 1.81916 -1.93846 -0.695522 
1 2.29525 -2.82054 -0.326543 
1 1.56547 2.67805 3.61989 
1 3.20756 -1.83005 -2.51821 
1 2.51579 -3.66365 -0.988801 
1 2.85233 -2.45349 2.11838 
1 2.82328 -2.02914 1.06642 
1 0.71332 3.1449 3.26237 
1 -0.549565 2.50832 -3.68254 
1 -0.772196 1.13629 1.89031 
1 -3.02559 -3.09169 -3.50352 
1 -3.71556 -1.12881 -1.54269 
1 -1.84557 1.13012 2.76789 
1 -3.68114 -1.40227 1.39529 
1 2.29951 -3.4714 -3.2963 
1 -0.197713 -2.93563 1.3909 
1 0.697744 -2.57535 0.880918 
1 0.31777 1.38024 0.298426 
1 -1.15186 1.4732 -2.962 
1 2.35068 -1.36539 -3.28916 
1 -0.46452 -3.17517 -2.58294 
1 -1.50816 -1.21179 -2.52826 
1 -2.83989 -2.85085 1.47933 
1 -2.43564 -1.12982 -1.9245 
1 2.11036 2.33402 0.0030129 
1 0.012467 -1.32719 1.60813 
1 0.541283 0.382956 0.689806 
1 3.47785 1.3566 -1.24138 
1 1.90255 -0.846416 -2.5242 
1 -2.9258 0.433962 -2.39396 
1 -2.98976 1.49421 1.18938 
1 -3.25427 -0.465487 1.52691 
1 3.5618 -3.60224 -1.42311 
1 0.778619 2.26423 0.830531 
1 1.37986 -1.90618 -3.42707 
1 -2.65101 -2.44081 -0.937967 
1 -2.82281 2.64689 -0.583826 
1 2.58869 -3.06809 0.824544 
1 -1.71278 1.87737 -2.16315 
1 1.22658 -2.87727 -3.02578 
1 2.4876 1.55929 0.651794 
1 1.88626 3.62405 1.7734 
1 0.426 -1.5829 0.657109 
1 -0.537116 -0.126813 0.347515 
1 -3.18841 2.09021 0.300948 
1 -2.70385 3.3659 -2.37596 
1 0.956855 -3.72364 -2.37675 
1 -0.283333 2.23899 0.493773 
1 -3.55822 -2.28382 2.00614 
1 1.93111 -1.89755 2.25599 
1 -1.75976 2.7869 -0.707947 
1 3.30396 0.513396 2.73598 
1 3.57491 2.01902 1.1968 
1 -2.69759 2.32429 -2.11884 
1 1.73696 -0.167196 3.09564 
1 -3.21308 0.119264 -0.372485 
1 -0.0770882 1.9841 -1.67957 
1 3.22173 2.17914 0.151206 
1 3.62888 3.32642 2.71375 
1 1.04756 -3.27523 1.51811 
1 0.344941 2.87493 -2.09899 
1 1.38814 2.8107 -2.77155 
1 -0.0357905 2.19444 -0.535908 
1 3.5196 2.59948 -3.1507 
1 -2.63456 0.76906 -0.940341 
1 0.945096 1.18566 1.22455 
1 -3.28062 -3.57702 2.04977 
1 -3.25603 2.14833 2.07889 
1 1.91593 -2.96994 2.32654 
1 2.85754 -3.49194 -2.279 
1 3.39017 0.653921 -0.481567 
1 3.24326 -2.8245 -3.07259 
1 -2.28006 -3.53058 3.35399 
1 -2.24522 2.12205 2.55637 
1 2.75663 2.62466 0.969425 
1 1.75972 -2.94363 -1.25858 
1 -1.45509 0.218725 0.684882 
1 3.60865 1.23221 1.97767 
1 -1.11361 -2.83712 0.08687 
1 -3.27983 3.19421 0.469897 
1 -2.93862 0.998048 0.199155 
1 0.00547622 -2.2224 2.13007 
1 1.08895 -0.631557 -1.13641 
1 2.88283 0.736609 1.2664 
1 -2.38283 -0.385995 2.19104 
1 1.41235 1.5463 0.289128 
1 -1.90589 -1.3422 2.13316 
1 1.90651 1.68099 3.48022 
1 3.52024 -1.41118 0.344555 
1 0.768149 1.41984 -0.666962 
1 -2.47373 -1.13893 3.14792 
1 3.36918 2.44656 3.29316 
1 -0.842124 -2.10995 1.09751 
1 -1.85902 -2.7286 -1.61061 
1 -3.04334 -0.23531 3.06276 
1 0.457132 -1.41436 -3.26872 
1 3.11748 -2.7446 -0.984243 
1 0.822512 0.407927 -1.00084 
1 -2.43402 -0.0477997 1.08734 
1 -3.21074 3.03576 -1.48474 
1 0.0990511 0.554924 -3.53635 
1 2.01474 0.840781 2.7715 
1 1.45008 -0.815022 -3.52336 
1 -0.619738 -1.18365 3.60008 
1 0.273519 0.364634 -2.50722 
1 -0.895005 -1.25154 -0.83458 
1 0.0570425 -0.323874 1.30188 
1 3.13715 -3.43493 -0.125759 
1 -1.574 3.6339 1.77277 
1 2.44549 -0.341491 -3.58958 
1 3.4732 -2.68398 -1.9737 
1 0.983475 3.10174 1.55348 
1 0.563823 3.27859 -0.296374 
1 -3.6003 -2.3257 0.926963 
1 0.964774 -3.68236 2.46752 
1 -1.44699 -3.51611 -2.17877 
1 1.62221 0.5794 0.605987 
1 -3.55667 1.56992 2.99864 
1 3.56767 -2.33898 2.97613 
1 -1.21702 1.4301 0.505293 
1 -0.612994 -0.601805 -2.2987 
1 2.37341 2.50915 2.91094 
1 -1.50333 2.18179 3.32297 
1 1.79835 1.79957 2.38051 
1 0.460302 -2.1227 3.27595 
1 2.80145 -0.486352 -0.0373697 
1 -1.3634 -0.73338 -1.59866 
1 2.82636 -3.41279 2.58994 
1 -1.8815 -1.69066 -1.23806 
1 2.76728 -1.71476 2.93545 
1 -3.68855 0.129709 -3.14948 
1 2.08394 -0.236501 -1.65503 
1 1.17173 -0.0844827 -0.154004 
1 2.76606 3.35504 3.39184 
1 -1.10979 -2.12921 -3.5419 
1 0.0191629 -2.18514 -2.24342 
1 -3.664 -1.29232 3.24346 
1 -3.4205 -3.07997 -0.539319 
1 -2.01408 -0.71881 -0.787081 
1 -2.86329 -1.39582 -0.946152 
1 -2.5449 3.61213 1.22662 
1 0.00819063 1.6404 1.32607 
1 -0.256745 1.23351 -0.906033 
1 0.28688 -2.46631 -3.21879 
1 0.98142 -1.85869 1.58014 
1 -0.453637 0.797368 0.860729 
1 -1.91857 0.877178 -0.117031 
1 -3.14849 -2.20851 -0.0212186 
1 -3.15933 -3.19861 0.484078 
1 1.82809 -3.71061 3.10728 
1 1.47473 -3.60377 -0.450436 
1 0.800386 0.174212 2.75852 
1 -1.83283 0.486551 -2.73609 
1 -1.71427 -1.89062 3.04548 
1 -1.84318 -3.16018 -0.632919 
1 0.317816 -3.52064 -3.25196 
1 -2.21713 2.96204 0.390309 
1 0.571543 1.12413 -1.72592 
1 0.932677 -2.61239 2.35988 
1 1.84971 -2.5177 1.3462 
1 -2.29182 -0.103763 0.0406078 
1 -2.95688 -0.397905 -1.29242 
1 1.71247 -0.700316 2.17284 
1 2.79975 -0.0341804 -2.60067 
1 -3.09191 2.59628 3.0336 
1 -1.92254 2.19352 -3.16127 
1 2.84486 1.52876 2.83861 
1 0.8959 1.96094 -2.29979 
1 -0.0906619 0.731998 2.90013 
1 -0.577466 -2.24846 3.03184 
1 -0.976013 2.0916 1.27876 
1 -0.0912766 -1.30778 2.69029 
1 -0.124574 -2.36159 -0.786737 
1 0.347327 2.90416 -3.16568 
1 3.51384 1.19136 0.469438 
1 0.872334 1.95541 -3.38049 
1 -0.019271 1.5799 3.59613 
1 -0.163417 0.312447 -1.4289 
1 -0.851788 -0.212024 -0.708207 
1 -2.13246 -2.48968 -3.51994 
1 -0.736517 3.41898 2.41917 
1 -2.30208 -2.1013 -2.35845 
1 -0.106196 2.62455 1.72586 
1 -1.0329 2.52672 -2.70369 
1 -0.884802 0.74109 -0.196638 
1 1.84015 2.3874 -1.88453 
1 -1.96999 -2.23996 -0.121136 
1 1.54458 -2.88802 0.366718 
1 -3.04791 -1.30361 2.25119 
1 0.388474 -0.605054 0.307914 
1 -2.01892 0.119167 3.14175 
1 -1.80987 3.30413 -2.98085 
1 2.02512 -0.150743 1.24416 
1 3.5272 3.1573 -2.24154 
1 1.77533 0.14232 -2.7954 
1 -2.23891 -3.22658 2.30898 
1 -2.25468 3.63852 -1.3589 
1 -0.694124 -1.04967 0.865929 
1 0.862276 -0.508217 -2.73066 
1 2.59425 -2.72916 3.35171 
1 -0.461301 3.12217 -0.091379 
1 -3.54034 0.451579 -1.45039 
1 -0.243492 3.48527 3.38047 
1 -3.45951 0.553106 1.19821 
1 -1.15697 3.57462 -1.13309 
1 -0.415564 -3.49021 0.522386 
1 1.95583 0.667151 -3.67333 
1 1.82809 -1.30357 3.14302 
1 -1.73252 1.52877 1.77572 
1 0.868472 2.38197 -1.28634 
1 1.51943 -1.83111 0.535169 
1 -3.06311 1.37803 -1.77974 
1 -3.45719 1.78935 -2.73505 
1 -3.10001 -3.01062 2.89412 
1 -1.61132 -0.639997 1.3345 
1 -2.0749 0.954063 -1.8036 
1 0.974686 -1.54939 2.5869 
1 2.60895 0.594014 0.232836 
1 2.78673 2.85622 -1.48509 
1 1.95481 -1.35518 1.36739 
1 -2.14104 -0.0991138 -1.89063 
1 -2.62606 1.81418 3.57319 
1 -2.61924 3.68072 -0.294835 
1 -1.73855 3.04517 2.65636 
1 -3.46487 -3.38481 -2.58059 
1 -2.4856 1.36362 -2.76518 
1 1.44595 2.86299 2.52905 
1 0.127231 -3.4965 -1.75575 
1 1.12649 0.99036 -2.90696 
1 0.15772 0.641209 1.80199 
1 1.04163 2.37048 -0.224105 
1 2.4496 0.271738 -0.766073 
1 1.02931 0.123758 -3.59623 
1 2.51647 2.46252 -3.47961 
1 -2.56237 -1.54461 -3.22408 
1 -0.486869 -2.99751 -3.69757 
1 -2.34736 -3.14249 -2.66526 
1 -2.82886 0.818393 3.13298 
1 -1.71602 0.29507 -0.988994 
1 3.019 0.609487 -3.7085 
1 0.127417 3.64677 1.81816 
1 3.71931 -0.763059 -0.526391 
1 1.70134 1.21753 -1.9061 
1 -2.42981 -1.32273 0.0213955 
1 -2.95028 -3.08868 -1.71622 
1 2.78233 -0.937986 0.931596 
1 0.0477515 -1.45864 -0.317411 
1 0.0727404 1.63492 2.38837 
1 1.74218 2.84774 0.861103 
1 -0.933362 -1.75066 0.0708332 
1 -0.914672 0.808397 3.67289 
1 -0.0881593 -0.488018 -3.19334 
1 -0.31978 -3.40455 -0.641929 
1 1.94854 -2.99604 -2.28627 
1 0.136846 -0.503723 -0.740714 
1 1.73195 1.82737 -0.910711 
1 2.59229 1.76577 -1.5281 
1 -1.13309 1.32884 -1.48117 
1 1.09792 -1.20951 -0.249729 
1 -1.82851 0.470521 1.82258 
1 1.13251 3.63047 0.596673 
1 -1.4305 -0.721341 2.94061 
1 2.4826 -2.15323 -1.63496 
1 3.53514 0.894239 -2.40161 
1 2.88958 -1.38376 1.94627 
1 -2.09427 -3.16581 0.511105 
1 2.63829 1.45075 -0.463233 
1 0.972545 -2.64874 -1.96464 
1 3.18339 -2.39287 0.0845914 
1 -0.718442 -2.86573 -1.59912 
1 -0.847622 1.48982 2.88193 
1 3.60693 -0.638541 2.40603 
1 -1.69563 -1.53746 0.740903 
1 2.45866 3.03584 -2.58977 
1 3.41306 -3.1219 1.51059 
1 -0.533548 -1.5298 -2.85824 
1 -1.10202 0.371347 2.62686 
1 -3.30269 -2.27453 -2.86866 
1 -1.46247 -0.164243 -3.47921 
1 -3.13804 -0.713363 -3.48187 
1 -1.28894 3.53599 3.4583 
1 0.933381 3.46349 -1.28731 
1 -3.12313 -0.694406 0.435331 
1 -1.41027 -3.21018 -3.23608 
1 2.27326 -2.42151 -3.14991 
1 0.662045 -0.673593 2.14993 
1 2.49854 0.996441 -2.77606 
1 -2.53468 -2.20979 2.38348 
1 1.81053 -1.28657 -1.55289 
1 -2.81957 2.56862 1.18679 
1 1.98789 -0.706714 -0.636326 
2 1.61924 0.0586356 -0.94052 
2 0.403431 -3.00992 -2.51721 
2 -0.945989 -0.791429 -3.12735 
2 3.61459 -0.692449 0.89913 
2 2.41568 3.42449 1.09139 
2 -3.40383 3.27514 -2.92249 
2 1.78965 3.6456 -2.66582 
2 -0.375909 1.13753 -3.11707 
2 -1.64555 -1.4591 -0.396027 
2 1.78069 -3.38423 1.03102 
2 -1.35965 2.79605 -3.52018 
2 -0.821233 1.86742 -2.16592 
2 0.185784 -2.64575 -1.54265 
2 2.56505 0.166723 3.1163 
2 -3.13773 -1.56811 0.694103 
2 -3.57232 0.413058 3.44495 
2 -2.57513 3.62112 -3.28542 
2 1.2684 -0.660659 -1.9706 
2 1.22309 -0.173503 0.727102 
2 -1.46881 0.0891993 -0.175724 
2 -1.70609 3.57033 0.886326 
2 2.17864 1.06685 -1.13933 
2 2.02728 -0.00719102 -0.0171925 
2 -0.711255 -3.65103 1.59834 
2 2.71191 -2.56481 -2.40311 
2 1.23509 -1.29362 -2.83698 
2 2.94195 -1.08779 3.55457 
2 2.56766 -3.03451 -1.6031 
2 -0.556957 -0.873715 -0.0996518 
2 1.53335 3.07641 -0.0100531 
2 0.561863 2.95359 2.33157 
2 -3.4676 2.01805 -3.6536 
2 1.59176 -2.14264 -1.56278 
2 -1.32269 1.01724 -2.26506 
2 -3.11434 2.16698 -1.32335 
2 -0.896865 0.607273 -1.0576 
2 -3.03584 0.179308 0.500081 
2 -2.41507 0.46509 2.45685 
2 2.70775 -2.07443 -0.622288 
2 3.32353 -1.89546 -1.58998 
2 -1.76216 -1.87477 -3.02253 
2 3.45052 -3.05422 0.619953 
2 -1.49276 -0.287691 2.15517 
2 2.2635 -2.33938 0.432745 
2 2.22398 -1.96253 3.57644 
2 0.863215 -2.1177 -2.66994 
2 -1.29754 0.901087 1.23098 
2 -1.45972 -0.295837 -2.48027 
2 -0.737153 -3.36373 3.01157 
2 2.7262 0.939352 2.16885 
2 0.143146 -1.05001 -2.51128 
2 1.19422 2.96132 -1.9375 
2 -2.6738 0.649587 1.55759 
2 -2.37673 2.76046 -1.36709 
2 -2.5989 -2.89776 -0.171332 
2 -2.46067 1.9845 1.70835 
2 -1.62052 -2.41852 0.696757 
2 -3.42491 -3.66648 1.1734 
2 -1.52472 -3.59001 2.63788 
2 0.0258875 3.54338 -2.54956 
2 -3.51403 -2.58244 -1.23328 
2 -2.30988 -2.66552 3.10359 
2 3.51345 1.53473 -0.362411 
2 0.976409 -1.40379 3.45671 
2 -2.81769 -0.65049 -0.433031 
2 -2.892 -0.448603 -2.22302 
2 0.305785 2.41212 3.57456 
2 -2.14393 -0.748257 0.621616 
2 0.373802 1.27534 -2.57167 
2 3.59125 -3.02219 2.40826 
2 -0.53646 -2.40407 -2.9401 
2 -0.485553 1.53908 -0.0563971 
2 -3.0727 -3.67969 -1.06222 
2 3.575 -1.58813 2.44725 
2 -0.227629 -1.9232 -3.66813 
2 -2.02915 -3.15387 1.43085 
2 0.389016 -3.43951 0.939716 
2 1.42365 -2.71269 -0.489765 
2 -2.26975 -0.511348 3.7301 
2 -2.95466 3.55884 2.85664 
2 2.53465 2.28985 -0.802736 
2 -1.81534 1.17918 -0.938555 
2 0.0373895 -2.1145 1.23044 
2 -3.46966 -1.54553 -3.37834 
2 0.925046 0.78915 0.000606886 
2 -3.2816 -1.38935 -0.192583 
2 -0.933018 2.83373 3.05391 
2 -1.28936 -1.45468 1.4894 
2 2.4888 -0.661419 1.75576 
2 -0.47168 -0.594764 -1.41306 
2 -0.886176 1.70415 3.7259 
2 2.53627 -3.21604 1.71993 
2 2.32102 3.29912 2.49479 
2 2.75547 -0.0695649 0.778333 
2 1.58406 0.229176 2.29518 
2 -1.68238 -2.52071 2.39942 
2 -0.961947 -1.45114 2.83038 
2 -0.88065 2.56198 -0.594706 
2 -2.87394 -1.95325 1.57326 
2 -3.65019 -2.51609 -3.67317 
