ITEM: TIMESTEP
246
ITEM: NUMBER OF ATOMS
500
ITEM: BOX BOUNDS xy xz yz pp pp pp
-3.7345 3.79425 0.059752
-3.7345 3.7345 0
-3.7345 3.7345 0
ITEM: ATOMS type xu yu zu 
1 3.22953 -1.89263 -3.57868 
1 -1.62797 -1.18811 -3.58399 
1 -2.95035 -2.07755 3.4284 
1 2.82245 -1.28496 -0.999298 
1 0.929032 2.05832 2.99241 
1 3.24655 2.44599 2.21692 
1 2.65041 -0.692516 2.80961 
1 -0.593948 3.25599 -2.04857 
1 2.77521 0.671574 -1.71852 
1 -3.09211 1.6205 -0.652564 
1 0.860113 -3.13026 3.38986 
1 0.733542 -3.00376 -0.964637 
1 -1.23293 2.48315 0.234645 
1 -1.02298 -1.97241 2.1413 
1 -2.61362 0.256928 -3.44423 
1 -2.54104 -1.20329 1.26052 
1 -1.4412 -2.8947 3.17763 
1 -0.724778 0.328465 -2.86083 
1 1.03498 -0.862783 1.14054 
1 0.364991 -0.500803 -1.8445 
1 1.3693 3.61049 -3.42868 
1 3.60228 2.34777 -0.831201 
1 -1.99184 1.98739 0.862506 
1 -1.39973 -0.755017 0.0924128 
1 3.70339 2.19802 -1.85483 
1 2.87781 3.01459 -0.374447 
1 1.12704 0.142206 1.60025 
1 1.56968 -2.36904 3.14682 
1 -0.625223 3.42271 -3.12194 
1 3.18671 -0.270778 -1.28538 
1 0.810086 -2.21503 -0.141609 
1 -2.10421 0.961185 0.927523 
1 -0.0157607 -1.39097 -1.44621 
1 1.07046 1.07929 2.30846 
1 1.88354 1.83617 -2.887 
1 1.85698 -0.762158 0.425981 
1 2.49261 -1.55605 0.0615873 
1 1.74611 -1.9261 -2.40945 
1 -3.22057 0.34322 2.204 
1 -0.855931 3.16011 1.02874 
1 -1.83315 -2.30246 1.56178 
1 -3.18408 -2.00593 -1.79588 
1 -2.68085 1.25569 2.1805 
1 -3.3185 1.09054 -3.47645 
1 2.71202 1.69394 1.70472 
1 0.852012 -1.92622 -1.14946 
1 0.51023 -0.688697 3.34648 
1 -0.867887 -0.926315 2.05283 
1 3.7594 -0.288799 -2.18877 
1 3.24259 -0.202066 1.5166 
1 -0.848069 0.0884951 1.58135 
1 0.511316 -3.19668 0.0494803 
1 -1.16368 1.7386 -0.53499 
1 -0.378635 1.09203 -2.20941 
1 -2.2386 -0.547953 -2.84865 
1 3.42743 -0.313309 3.42374 
1 -0.925322 -1.78184 -1.792 
1 3.23029 1.63068 -3.50959 
1 0.0348223 -3.1504 2.68577 
1 -1.2902 -2.44973 -2.51347 
1 -3.23337 3.39289 3.67979 
1 -1.08769 0.270132 -1.86161 
1 -3.28731 -1.21393 -2.53947 
1 1.94732 3.51535 -1.8037 
1 -0.980316 2.34203 2.30219 
1 1.8787 2.91163 -0.883987 
1 0.908792 2.12145 1.91508 
1 -2.18053 1.89831 -1.22449 
1 1.01079 1.06677 3.39914 
1 1.94592 0.88605 1.69354 
1 2.90521 2.0219 -2.53582 
1 -0.162639 -2.42793 0.331478 
1 -0.965019 -3.0269 2.19556 
1 3.6711 -1.86942 -0.755416 
1 1.75018 1.8872 1.28568 
1 1.70849 0.843275 -0.448185 
1 3.30245 3.55002 0.794557 
1 -2.62611 3.06246 2.17114 
1 2.50586 0.118248 2.19144 
1 1.19368 0.214539 -1.92798 
1 -2.15191 1.89591 -0.158675 
1 0.144248 0.443256 -0.236648 
1 -0.185794 -0.206516 2.38743 
1 -1.3512 3.58134 0.0494226 
1 -1.79295 2.64293 1.63942 
1 3.33841 3.60809 -3.18678 
1 -1.88223 1.04699 -3.63806 
1 2.2412 2.64449 1.84252 
1 -0.525244 -0.163421 3.38493 
1 -0.0720954 3.0548 -1.13748 
1 -0.97237 2.39909 -1.43868 
1 -1.21488 -3.12464 1.10676 
1 3.49867 -3.2809 3.42379 
1 0.848479 -1.44276 -2.09337 
1 3.33729 -0.88956 -3.11433 
1 3.58635 0.0513654 0.416839 
1 -3.58696 3.04655 1.56749 
1 0.247245 3.16927 0.80736 
1 -0.0483781 2.58466 2.80267 
1 -0.0765338 1.95626 -2.81674 
1 -2.17552 2.9269 3.58095 
1 -3.5787 3.3355 -0.528436 
1 2.25695 3.60868 0.263096 
1 -2.84639 2.60115 -3.15928 
1 -2.5052 -2.17757 0.778724 
1 -1.70717 2.92648 -1.97902 
1 2.84201 -0.977161 -2.03694 
1 2.96066 3.41869 1.79668 
1 -1.16301 -2.315 -0.822802 
1 1.83012 -1.93313 -0.697128 
1 2.3022 -2.81747 -0.329 
1 1.60889 2.67051 3.62037 
1 3.22865 -1.82168 -2.51285 
1 2.5225 -3.66063 -0.996867 
1 2.85936 -2.45758 2.13494 
1 2.82083 -2.03665 1.07468 
1 0.766499 3.14457 3.25595 
1 -0.498581 2.50436 -3.68561 
1 -0.729807 1.12246 1.88922 
1 -3.02183 -3.09895 -3.49223 
1 -3.69486 -1.13016 -1.54472 
1 -1.8099 1.12739 2.77329 
1 -3.67365 -1.39829 1.39614 
1 2.29871 -3.46848 -3.3029 
1 -0.187643 -2.9437 1.38603 
1 0.709293 -2.56263 0.882459 
1 0.354771 1.37065 0.302999 
1 -1.10471 1.46911 -2.96491 
1 2.3733 -1.3644 -3.29775 
1 -0.458801 -3.17832 -2.5812 
1 -1.4847 -1.21946 -2.52753 
1 -2.83182 -2.84785 1.47843 
1 -2.41306 -1.12828 -1.92772 
1 2.15959 2.33118 -0.0126414 
1 0.0137042 -1.32864 1.60908 
1 0.59862 0.375558 0.697733 
1 3.52711 1.36423 -1.2412 
1 1.9295 -0.840873 -2.52992 
1 -2.89083 0.437757 -2.39645 
1 -2.95292 1.49407 1.19368 
1 -3.23327 -0.466818 1.52438 
1 3.56821 -3.60135 -1.42682 
1 0.816792 2.25773 0.83413 
1 1.39851 -1.91154 -3.41923 
1 -2.64181 -2.44225 -0.934144 
1 -2.77 2.64753 -0.585645 
1 2.58413 -3.06995 0.828302 
1 -1.66162 1.87394 -2.16307 
1 1.2383 -2.88476 -3.0262 
1 2.5229 1.55971 0.642008 
1 1.93587 3.63382 1.77561 
1 0.412627 -1.57353 0.652662 
1 -0.532298 -0.137803 0.345517 
1 -3.14193 2.09365 0.301342 
1 -2.6436 3.36282 -2.37854 
1 0.954183 -3.72434 -2.37502 
1 -0.234956 2.2405 0.498818 
1 -3.55317 -2.28211 2.0064 
1 1.94172 -1.89937 2.25189 
1 -1.70953 2.78848 -0.704182 
1 3.34486 0.532182 2.74034 
1 3.62595 2.0375 1.19452 
1 -2.64348 2.32255 -2.12107 
1 1.77549 -0.148364 3.10586 
1 -3.17892 0.122843 -0.382348 
1 -0.0281097 1.98178 -1.67695 
1 3.26697 2.17876 0.145907 
1 3.69563 3.3223 2.70891 
1 1.03076 -3.2863 1.50805 
1 0.405447 2.86791 -2.10602 
1 1.43676 2.80964 -2.771 
1 0.00433338 2.18703 -0.531898 
1 3.57085 2.61025 -3.16655 
1 -2.59436 0.769309 -0.944545 
1 0.986296 1.18483 1.23359 
1 -3.27806 -3.56232 2.05661 
1 -3.21327 2.15371 2.08534 
1 1.92329 -2.97176 2.34734 
1 2.86449 -3.48716 -2.27715 
1 3.42559 0.655556 -0.490724 
1 3.26014 -2.81489 -3.06463 
1 -2.27538 -3.5271 3.36046 
1 -2.19701 2.1234 2.55735 
1 2.79808 2.62285 0.960525 
1 1.77126 -2.93385 -1.2607 
1 -1.43826 0.210583 0.690661 
1 3.65131 1.23918 1.96886 
1 -1.10974 -2.83741 0.089601 
1 -3.22581 3.19889 0.472659 
1 -2.90312 0.99814 0.20066 
1 0.00658713 -2.22654 2.12693 
1 1.12077 -0.617374 -1.13713 
1 2.91927 0.740727 1.26131 
1 -2.36451 -0.385514 2.18996 
1 1.44542 1.55668 0.28654 
1 -1.89725 -1.34543 2.13712 
1 1.95743 1.68288 3.47676 
1 3.53671 -1.41109 0.337026 
1 0.812548 1.43362 -0.660171 
1 -2.45772 -1.13532 3.1495 
1 3.4156 2.4423 3.28085 
1 -0.836715 -2.11654 1.10014 
1 -1.85238 -2.73418 -1.61015 
1 -3.02601 -0.232425 3.06075 
1 0.478968 -1.4192 -3.26935 
1 3.12951 -2.74475 -0.978651 
1 0.85183 0.419579 -0.975794 
1 -2.41588 -0.0414627 1.0857 
1 -3.15369 3.03528 -1.48877 
1 0.134642 0.544814 -3.5442 
1 2.0783 0.847386 2.78904 
1 1.47126 -0.824228 -3.5266 
1 -0.601695 -1.18717 3.60054 
1 0.312951 0.366226 -2.51299 
1 -0.878184 -1.25793 -0.837168 
1 0.0755198 -0.326151 1.28592 
1 3.13906 -3.43598 -0.123128 
1 -1.51089 3.63104 1.77512 
1 2.4686 -0.334458 -3.57651 
1 3.47789 -2.67917 -1.96804 
1 1.04252 3.09427 1.54956 
1 0.612254 3.29528 -0.298054 
1 -3.598 -2.3249 0.930055 
1 0.971266 -3.67999 2.46555 
1 -1.43885 -3.52184 -2.17707 
1 1.67626 0.601685 0.613527 
1 -3.51135 1.56737 2.9967 
1 3.58107 -2.32714 2.97965 
1 -1.17408 1.42305 0.511756 
1 -0.587758 -0.606537 -2.30319 
1 2.41747 2.51899 2.90796 
1 -1.45526 2.17989 3.32287 
1 1.84904 1.79793 2.37737 
1 0.464858 -2.12886 3.2718 
1 2.83659 -0.500781 -0.0372848 
1 -1.33782 -0.736947 -1.60276 
1 2.83376 -3.42236 2.58971 
1 -1.86808 -1.69685 -1.24468 
1 2.77408 -1.71265 2.9484 
1 -3.66299 0.138665 -3.14796 
1 2.11566 -0.229998 -1.65425 
1 1.21332 -0.0812764 -0.138102 
1 2.83689 3.35323 3.39496 
1 -1.09915 -2.13139 -3.54056 
1 0.0322928 -2.18795 -2.2446 
1 -3.64377 -1.27988 3.24418 
1 -3.41374 -3.08226 -0.538603 
1 -1.99366 -0.722977 -0.796244 
1 -2.84537 -1.39803 -0.948634 
1 -2.48767 3.6103 1.23606 
1 0.0434981 1.62993 1.32662 
1 -0.209475 1.22299 -0.897585 
1 0.300127 -2.46879 -3.21892 
1 0.98848 -1.83685 1.57373 
1 -0.411633 0.77907 0.861292 
1 -1.88484 0.874792 -0.114141 
1 -3.14062 -2.21245 -0.0169017 
1 -3.15947 -3.1977 0.486112 
1 1.83074 -3.73502 3.10694 
1 1.48125 -3.59929 -0.456508 
1 0.833244 0.156852 2.74827 
1 -1.7962 0.480906 -2.72965 
1 -1.70542 -1.89235 3.04915 
1 -1.83771 -3.16441 -0.631589 
1 0.322158 -3.52218 -3.2509 
1 -2.16493 2.96172 0.398061 
1 0.616046 1.12301 -1.71852 
1 0.9395 -2.61207 2.33628 
1 1.8406 -2.52816 1.35801 
1 -2.26331 -0.106399 0.0363053 
1 -2.93601 -0.402379 -1.29773 
1 1.73458 -0.665705 2.17695 
1 2.83146 -0.0270272 -2.59554 
1 -3.03977 2.58833 3.04644 
1 -1.87365 2.19302 -3.16017 
1 2.89389 1.54568 2.82544 
1 0.950131 1.95298 -2.29903 
1 -0.0555866 0.721055 2.89342 
1 -0.570403 -2.25279 3.03176 
1 -0.935125 2.09437 1.27821 
1 -0.0775103 -1.30856 2.6903 
1 -0.115302 -2.36604 -0.785909 
1 0.398199 2.90249 -3.17217 
1 3.55163 1.19564 0.469103 
1 0.916 1.9536 -3.38174 
1 0.0277047 1.57453 3.58921 
1 -0.123787 0.313535 -1.43705 
1 -0.821944 -0.220271 -0.70646 
1 -2.12654 -2.49303 -3.51305 
1 -0.679912 3.4165 2.42422 
1 -2.28847 -2.10142 -2.35812 
1 -0.0578977 2.62017 1.71787 
1 -0.982145 2.52303 -2.70693 
1 -0.853426 0.738467 -0.19875 
1 1.89495 2.38723 -1.8923 
1 -1.96294 -2.24502 -0.118155 
1 1.55071 -2.88288 0.364033 
1 -3.03481 -1.3012 2.25147 
1 0.397481 -0.596994 0.284002 
1 -1.994 0.113752 3.13952 
1 -1.74944 3.30536 -2.98115 
1 2.07647 -0.139663 1.24492 
1 3.58191 3.15371 -2.24655 
1 1.80531 0.158491 -2.76649 
1 -2.23702 -3.22971 2.31312 
1 -2.19073 3.63415 -1.35638 
1 -0.690198 -1.05263 0.870575 
1 0.8895 -0.51037 -2.73232 
1 2.58318 -2.72166 3.3325 
1 -0.409934 3.11787 -0.0956388 
1 -3.50246 0.45652 -1.45535 
1 -0.186539 3.48146 3.38425 
1 -3.42553 0.551221 1.18991 
1 -1.09026 3.56485 -1.12793 
1 -0.40851 -3.48968 0.508094 
1 1.98477 0.677965 -3.65108 
1 1.83589 -1.29089 3.12446 
1 -1.68725 1.52686 1.7804 
1 0.918998 2.38235 -1.28857 
1 1.53118 -1.82348 0.548958 
1 -3.01559 1.38005 -1.78196 
1 -3.4092 1.80131 -2.74004 
1 -3.09411 -3.00552 2.90621 
1 -1.60236 -0.642591 1.34164 
1 -2.02871 0.954375 -1.80166 
1 0.980729 -1.55459 2.58552 
1 2.654 0.594236 0.228844 
1 2.83901 2.85115 -1.49439 
1 1.96286 -1.33231 1.37899 
1 -2.11468 -0.097788 -1.88393 
1 -2.57428 1.80495 3.5764 
1 -2.55705 3.67813 -0.292469 
1 -1.68793 3.04789 2.65743 
1 -3.46248 -3.38576 -2.56777 
1 -2.44026 1.36467 -2.76436 
1 1.48946 2.85417 2.52541 
1 0.125845 -3.50459 -1.75287 
1 1.16023 0.996224 -2.91016 
1 0.203626 0.6307 1.80246 
1 1.08817 2.38654 -0.224985 
1 2.4835 0.266603 -0.762608 
1 1.06783 0.121 -3.58781 
1 2.56416 2.46692 -3.48433 
1 -2.54163 -1.53894 -3.22278 
1 -0.478847 -2.99805 -3.69569 
1 -2.33967 -3.14534 -2.65825 
1 -2.79518 0.814191 3.13474 
1 -1.67924 0.290688 -0.984705 
1 3.04506 0.620998 -3.70681 
1 0.186135 3.63817 1.82827 
1 3.7531 -0.761576 -0.528272 
1 1.74633 1.19917 -1.91295 
1 -2.40638 -1.3218 0.016413 
1 -2.94169 -3.09051 -1.70961 
1 2.80674 -0.948595 0.939479 
1 0.0694189 -1.45558 -0.335747 
1 0.117493 1.62595 2.38932 
1 1.7851 2.83689 0.842946 
1 -0.916596 -1.75081 0.0711318 
1 -0.872149 0.805317 3.66916 
1 -0.0624601 -0.492394 -3.19616 
1 -0.302451 -3.41303 -0.651236 
1 1.96079 -2.98805 -2.28721 
1 0.165316 -0.502358 -0.759283 
1 1.77797 1.82677 -0.919492 
1 2.63649 1.75456 -1.53872 
1 -1.08541 1.32409 -1.47828 
1 1.12262 -1.19955 -0.245892 
1 -1.80202 0.469253 1.82201 
1 1.19248 3.63246 0.586007 
1 -1.41182 -0.726623 2.94444 
1 2.49604 -2.1467 -1.62461 
1 3.57962 0.911291 -2.39894 
1 2.90077 -1.39216 1.95438 
1 -2.09444 -3.16754 0.518206 
1 2.68397 1.451 -0.470685 
1 0.98302 -2.64413 -1.96627 
1 3.1907 -2.39366 0.0863824 
1 -0.715167 -2.87152 -1.5962 
1 -0.80787 1.48484 2.87696 
1 3.62352 -0.629841 2.4029 
1 -1.68208 -1.54126 0.742136 
1 2.50992 3.05007 -2.60023 
1 3.40894 -3.12148 1.5156 
1 -0.512815 -1.53367 -2.8613 
1 -1.07301 0.365293 2.6261 
1 -3.28487 -2.2687 -2.87183 
1 -1.42998 -0.16164 -3.48297 
1 -3.11365 -0.705221 -3.479 
1 -1.2293 3.53284 3.45887 
1 0.991956 3.46204 -1.28479 
1 -3.09787 -0.696028 0.433295 
1 -1.40309 -3.21284 -3.23542 
1 2.29314 -2.41958 -3.15647 
1 0.685345 -0.685521 2.12498 
1 2.54669 1.00572 -2.76355 
1 -2.52889 -2.21125 2.38681 
1 1.83484 -1.27928 -1.554 
1 -2.7757 2.56803 1.19061 
1 2.0142 -0.702505 -0.63237 
2 1.65015 0.0678205 -0.935953 
2 0.408961 -3.01016 -2.51415 
2 -0.924023 -0.794012 -3.12687 
2 3.63611 -0.692219 0.889375 
2 2.45614 3.4172 1.0909 
2 -3.34683 3.27951 -2.92363 
2 1.84365 3.65847 -2.66927 
2 -0.326994 1.13426 -3.11828 
2 -1.62838 -1.47059 -0.404042 
2 1.77246 -3.3829 1.02936 
2 -1.308 2.79237 -3.52166 
2 -0.772239 1.86779 -2.16386 
2 0.188701 -2.6532 -1.54558 
2 2.61626 0.158549 3.12005 
2 -3.13021 -1.56714 0.699189 
2 -3.54377 0.419583 3.45035 
2 -2.51713 3.60783 -3.29021 
2 1.29129 -0.671265 -1.97325 
2 1.29815 -0.155173 0.744326 
2 -1.43445 0.0845399 -0.169527 
2 -1.65175 3.56446 0.891558 
2 2.21855 1.06069 -1.14078 
2 2.06941 -0.00726328 -0.00859702 
2 -0.707795 -3.65591 1.60212 
2 2.7202 -2.54877 -2.40056 
2 1.25969 -1.29455 -2.83363 
2 2.96917 -1.0801 3.55645 
2 2.5815 -3.02509 -1.60287 
2 -0.543495 -0.889772 -0.0925017 
2 1.5966 3.08111 -0.0227042 
2 0.611273 2.95669 2.32582 
2 -3.41659 2.02266 -3.66181 
2 1.60091 -2.13225 -1.56498 
2 -1.27824 1.01509 -2.26585 
2 -3.0611 2.16708 -1.32447 
2 -0.856561 0.598635 -1.05759 
2 -3.00659 0.177528 0.488614 
2 -2.38529 0.465307 2.45601 
2 2.71827 -2.07128 -0.627372 
2 3.33637 -1.89049 -1.58508 
2 -1.7488 -1.87702 -3.02214 
2 3.44849 -3.0555 0.625582 
2 -1.47606 -0.288233 2.16103 
2 2.26994 -2.33967 0.430935 
2 2.20804 -1.95778 3.57219 
2 0.882993 -2.11976 -2.67509 
2 -1.2611 0.890814 1.23312 
2 -1.43364 -0.303883 -2.4701 
2 -0.731447 -3.36389 3.013 
2 2.76902 0.949298 2.16347 
2 0.166621 -1.05659 -2.51382 
2 1.25244 2.96383 -1.93569 
2 -2.64419 0.659929 1.55639 
2 -2.32091 2.75794 -1.36895 
2 -2.59319 -2.90156 -0.168721 
2 -2.41745 1.98197 1.71068 
2 -1.61619 -2.42357 0.701254 
2 -3.42648 -3.66001 1.17789 
2 -1.51988 -3.59016 2.63931 
2 0.0863256 3.54039 -2.54945 
2 -3.50368 -2.58119 -1.23097 
2 -2.30169 -2.66235 3.10874 
2 3.5611 1.53388 -0.363958 
2 0.997259 -1.42066 3.45582 
2 -2.79356 -0.651828 -0.436236 
2 -2.86237 -0.444528 -2.22806 
2 0.355521 2.4102 3.56872 
2 -2.12857 -0.748448 0.62363 
2 0.415213 1.27627 -2.56087 
2 3.59243 -3.01396 2.4183 
2 -0.524835 -2.40765 -2.93934 
2 -0.44662 1.53547 -0.0499029 
2 -3.06903 -3.68526 -1.06022 
2 3.59067 -1.58127 2.45204 
2 -0.217046 -1.92964 -3.66815 
2 -2.02302 -3.15726 1.435 
2 0.391041 -3.43225 0.916497 
2 1.43009 -2.70695 -0.492496 
2 -2.24052 -0.512804 3.73254 
2 -2.89181 3.5671 2.86244 
2 2.58589 2.28739 -0.815395 
2 -1.76959 1.17431 -0.935877 
2 0.0407204 -2.11636 1.22965 
2 -3.44331 -1.53751 -3.3806 
2 0.960172 0.786969 -0.00465001 
2 -3.25708 -1.39195 -0.191207 
2 -0.882018 2.82837 3.05268 
2 -1.27988 -1.45689 1.49242 
2 2.51858 -0.658043 1.76934 
2 -0.449112 -0.588642 -1.4211 
2 -0.837458 1.70058 3.72257 
2 2.53105 -3.21127 1.72508 
2 2.37768 3.29911 2.48348 
2 2.79249 -0.0804815 0.762893 
2 1.62722 0.257363 2.30858 
2 -1.67723 -2.52471 2.4022 
2 -0.948106 -1.45715 2.83382 
2 -0.835726 2.55635 -0.59031 
2 -2.8661 -1.95164 1.57699 
2 -3.63442 -2.51717 -3.67357 
