ITEM: TIMESTEP
208
ITEM: NUMBER OF ATOMS
500
ITEM: BOX BOUNDS xy xz yz pp pp pp
-3.7345 3.78678 0.052283
-3.7345 3.7345 0
-3.7345 3.7345 0
ITEM: ATOMS type xu yu zu 
1 3.22611 -1.89373 -3.57965 
1 -1.63066 -1.18817 -3.5842 
1 -2.95213 -2.07861 3.42783 
1 2.81973 -1.28606 -0.99917 
1 0.923089 2.05955 2.99255 
1 3.24191 2.44457 2.21837 
1 2.64752 -0.69273 2.80904 
1 -0.601553 3.25722 -2.04853 
1 2.76837 0.6723 -1.71946 
1 -3.09803 1.61996 -0.652842 
1 0.858211 -3.13025 3.38975 
1 0.732115 -3.00424 -0.963512 
1 -1.23896 2.48353 0.234343 
1 -1.02363 -1.97198 2.14097 
1 -2.61802 0.257034 -3.4445 
1 -2.54305 -1.20295 1.26028 
1 -1.44201 -2.89431 3.17744 
1 -0.729456 0.328538 -2.86092 
1 1.03395 -0.864042 1.14571 
1 0.361756 -0.499247 -1.84381 
1 1.36193 3.61122 -3.42837 
1 3.59533 2.34693 -0.830643 
1 -1.99722 1.9872 0.862028 
1 -1.40147 -0.753764 0.0932224 
1 3.69627 2.19786 -1.85452 
1 2.8715 3.01477 -0.372791 
1 1.12071 0.142452 1.59898 
1 1.57189 -2.37221 3.14799 
1 -0.632554 3.4232 -3.12221 
1 3.18177 -0.271309 -1.28587 
1 0.80791 -2.21672 -0.142479 
1 -2.10817 0.960536 0.927031 
1 -0.016828 -1.39038 -1.44432 
1 1.06463 1.08013 2.30747 
1 1.87757 1.83596 -2.8861 
1 1.85168 -0.76252 0.425059 
1 2.49062 -1.55574 0.0617391 
1 1.74195 -1.92722 -2.40936 
1 -3.22407 0.342627 2.20464 
1 -0.863375 3.15974 1.02949 
1 -1.834 -2.30226 1.56157 
1 -3.18604 -2.00556 -1.79574 
1 -2.68545 1.25531 2.17982 
1 -3.32407 1.09033 -3.47719 
1 2.70643 1.69283 1.70636 
1 0.850897 -1.92689 -1.15024 
1 0.505986 -0.687582 3.34667 
1 -0.869197 -0.925913 2.05223 
1 3.75535 -0.289253 -2.18912 
1 3.23942 -0.202441 1.51814 
1 -0.850665 0.0896703 1.58144 
1 0.509804 -3.19867 0.0507591 
1 -1.16938 1.7387 -0.535174 
1 -0.38398 1.09237 -2.20947 
1 -2.24277 -0.548157 -2.84879 
1 3.42501 -0.314689 3.42336 
1 -0.926513 -1.78017 -1.79219 
1 3.22396 1.62987 -3.50977 
1 0.0334206 -3.15054 2.68483 
1 -1.29145 -2.44891 -2.51319 
1 -3.23977 3.39229 3.68023 
1 -1.09198 0.27093 -1.86175 
1 -3.29049 -1.21445 -2.53958 
1 1.94054 3.5145 -1.80304 
1 -0.986265 2.34234 2.30233 
1 1.87193 2.91173 -0.882253 
1 0.903585 2.1222 1.91503 
1 -2.18696 1.89847 -1.22462 
1 1.00531 1.06801 3.39911 
1 1.94035 0.885313 1.69224 
1 2.89878 2.01866 -2.53538 
1 -0.163741 -2.42743 0.330951 
1 -0.966237 -3.02655 2.19556 
1 3.66947 -1.86984 -0.756139 
1 1.74513 1.88766 1.28596 
1 1.70339 0.842911 -0.448981 
1 3.29617 3.5505 0.794325 
1 -2.63139 3.06228 2.16963 
1 2.49969 0.117069 2.19025 
1 1.19159 0.216859 -1.93138 
1 -2.15795 1.89577 -0.158992 
1 0.141384 0.445387 -0.239496 
1 -0.189657 -0.205176 2.38883 
1 -1.35809 3.58157 0.0487465 
1 -1.79801 2.64264 1.63889 
1 3.33033 3.60584 -3.18727 
1 -1.88796 1.04892 -3.63849 
1 2.23672 2.64369 1.84417 
1 -0.529651 -0.162392 3.38604 
1 -0.0799507 3.05607 -1.13712 
1 -0.978898 2.39973 -1.4391 
1 -1.21581 -3.12378 1.10679 
1 3.49926 -3.2826 3.42369 
1 0.846039 -1.44089 -2.09318 
1 3.33414 -0.890481 -3.11474 
1 3.58211 0.0513523 0.418298 
1 -3.59405 3.04441 1.56565 
1 0.239931 3.16883 0.807182 
1 -0.0548554 2.58499 2.80341 
1 -0.0827183 1.95665 -2.8164 
1 -2.18256 2.92661 3.58106 
1 -3.58584 3.33542 -0.528614 
1 2.24958 3.60923 0.263465 
1 -2.8532 2.60039 -3.15867 
1 -2.50623 -2.17814 0.778504 
1 -1.71439 2.9269 -1.97888 
1 2.83927 -0.978966 -2.03679 
1 2.95518 3.4185 1.79809 
1 -1.16409 -2.3146 -0.823285 
1 1.82872 -1.93403 -0.696936 
1 2.30135 -2.81789 -0.328235 
1 1.60333 2.67126 3.62035 
1 3.22551 -1.82302 -2.51399 
1 2.52179 -3.66099 -0.995506 
1 2.85835 -2.45683 2.13232 
1 2.8217 -2.03545 1.07332 
1 0.759884 3.14466 3.25675 
1 -0.504891 2.50499 -3.68518 
1 -0.734895 1.12403 1.88953 
1 -3.02188 -3.09808 -3.49412 
1 -3.6972 -1.12984 -1.5444 
1 -1.81433 1.12785 2.77285 
1 -3.67462 -1.39874 1.39575 
1 2.29878 -3.46861 -3.30177 
1 -0.189224 -2.94251 1.38652 
1 0.707478 -2.56415 0.882257 
1 0.350076 1.37193 0.302524 
1 -1.11088 1.46973 -2.96462 
1 2.37061 -1.36435 -3.29777 
1 -0.459477 -3.17785 -2.58134 
1 -1.48761 -1.21838 -2.52743 
1 -2.83307 -2.84833 1.47848 
1 -2.41614 -1.1287 -1.92752 
1 2.15347 2.33177 -0.0100862 
1 0.0135246 -1.32838 1.609 
1 0.591361 0.376821 0.696954 
1 3.52105 1.36307 -1.24107 
1 1.9266 -0.842865 -2.52921 
1 -2.89535 0.437103 -2.39631 
1 -2.95707 1.49394 1.19301 
1 -3.23589 -0.466639 1.52451 
1 3.56748 -3.6013 -1.42647 
1 0.812151 2.25858 0.83382 
1 1.39621 -1.91066 -3.42049 
1 -2.64302 -2.4423 -0.934861 
1 -2.77671 2.64735 -0.58533 
1 2.58513 -3.06937 0.827814 
1 -1.66817 1.87436 -2.16306 
1 1.23693 -2.88362 -3.02633 
1 2.51838 1.55945 0.643497 
1 1.92984 3.63221 1.77518 
1 0.414364 -1.5746 0.653306 
1 -0.532274 -0.136691 0.345804 
1 -3.14818 2.09296 0.301143 
1 -2.65139 3.36307 -2.37834 
1 0.954822 -3.72419 -2.37525 
1 -0.240885 2.24044 0.498375 
1 -3.55383 -2.28219 2.00625 
1 1.94008 -1.89881 2.25247 
1 -1.71586 2.78832 -0.704412 
1 3.33978 0.529403 2.73891 
1 3.61982 2.03482 1.19473 
1 -2.65042 2.32267 -2.12065 
1 1.7706 -0.150705 3.10427 
1 -3.18326 0.122314 -0.381094 
1 -0.0345393 1.98247 -1.67706 
1 3.26086 2.17851 0.146766 
1 3.68691 3.32307 2.7095 
1 1.03354 -3.28451 1.50935 
1 0.398122 2.86884 -2.10513 
1 1.43096 2.8097 -2.77107 
1 -0.000255975 2.18812 -0.532066 
1 3.56419 2.6084 -3.16384 
1 -2.59936 0.768913 -0.944085 
1 0.981339 1.18505 1.23269 
1 -3.27818 -3.56461 2.05564 
1 -3.21831 2.15298 2.08428 
1 1.92212 -2.97128 2.34365 
1 2.86367 -3.48784 -2.27763 
1 3.42117 0.655392 -0.489426 
1 3.2576 -2.81646 -3.06613 
1 -2.2759 -3.52779 3.35895 
1 -2.20282 2.1233 2.55712 
1 2.79335 2.62317 0.962092 
1 1.77001 -2.9353 -1.26026 
1 -1.43993 0.211405 0.689699 
1 3.64628 1.23829 1.96988 
1 -1.11024 -2.83735 0.08924 
1 -3.23265 3.19814 0.472112 
1 -2.90733 0.998039 0.200448 
1 0.00618514 -2.22597 2.12722 
1 1.11711 -0.618351 -1.13757 
1 2.91488 0.739956 1.26196 
1 -2.36679 -0.385529 2.19015 
1 1.44117 1.55557 0.286902 
1 -1.89849 -1.34509 2.13652 
1 1.95168 1.68265 3.47723 
1 3.53459 -1.41104 0.337765 
1 0.807011 1.43213 -0.660854 
1 -2.46003 -1.13594 3.14944 
1 3.40992 2.44328 3.28278 
1 -0.837627 -2.11576 1.09974 
1 -1.85319 -2.73362 -1.61023 
1 -3.02826 -0.232802 3.0611 
1 0.476128 -1.41851 -3.26916 
1 3.12786 -2.74481 -0.979417 
1 0.848476 0.418594 -0.979278 
1 -2.41812 -0.0420675 1.08575 
1 -3.1607 3.03535 -1.48815 
1 0.129712 0.546288 -3.54321 
1 2.07103 0.846608 2.78696 
1 1.46881 -0.822649 -3.5261 
1 -0.604001 -1.18675 3.60057 
1 0.307749 0.36609 -2.51231 
1 -0.880304 -1.25707 -0.836865 
1 0.0734441 -0.325862 1.28805 
1 3.13898 -3.4358 -0.123331 
1 -1.51883 3.63136 1.77485 
1 2.46588 -0.335092 -3.57863 
1 3.47719 -2.67983 -1.96899 
1 1.03504 3.09528 1.55007 
1 0.606075 3.29344 -0.297961 
1 -3.59812 -2.32501 0.929506 
1 0.970161 -3.6804 2.46555 
1 -1.43965 -3.52118 -2.1772 
1 1.66939 0.59906 0.612389 
1 -3.51679 1.56815 2.99683 
1 3.57935 -2.32886 2.97903 
1 -1.17915 1.42394 0.511106 
1 -0.590929 -0.605658 -2.30257 
1 2.41209 2.5176 2.90843 
1 -1.46129 2.18035 3.32296 
1 1.84287 1.79802 2.37782 
1 0.464474 -2.12805 3.27276 
1 2.83222 -0.499071 -0.0371753 
1 -1.34098 -0.736259 -1.60213 
1 2.83267 -3.42059 2.58954 
1 -1.86961 -1.69611 -1.24425 
1 2.77308 -1.71322 2.94659 
1 -3.66709 0.137845 -3.14855 
1 2.11154 -0.230972 -1.65467 
1 1.20838 -0.0812522 -0.140393 
1 2.82736 3.35381 3.39418 
1 -1.1004 -2.13102 -3.54047 
1 0.0310673 -2.18724 -2.24417 
1 -3.64609 -1.2814 3.24403 
1 -3.41467 -3.08191 -0.53866 
1 -1.99622 -0.722714 -0.795025 
1 -2.84736 -1.3979 -0.948384 
1 -2.49502 3.61043 1.23459 
1 0.0392014 1.63119 1.32668 
1 -0.215545 1.22464 -0.898364 
1 0.298453 -2.46845 -3.21855 
1 0.987439 -1.83985 1.57477 
1 -0.41673 0.781227 0.8614 
1 -1.88874 0.875202 -0.114729 
1 -3.14137 -2.21195 -0.0175232 
1 -3.15939 -3.19794 0.485788 
1 1.83009 -3.73082 3.10674 
1 1.48041 -3.59991 -0.455475 
1 0.828719 0.15916 2.74985 
1 -1.801 0.481647 -2.73042 
1 -1.70627 -1.89183 3.04882 
1 -1.83834 -3.16401 -0.631753 
1 0.321668 -3.52201 -3.25083 
1 -2.17147 2.96158 0.396845 
1 0.609908 1.12355 -1.71946 
1 0.938096 -2.61227 2.33965 
1 1.84226 -2.52595 1.35585 
1 -2.26688 -0.105949 0.0367303 
1 -2.93846 -0.401871 -1.29696 
1 1.73134 -0.670075 2.17591 
1 2.82677 -0.028686 -2.59564 
1 -3.04622 2.58961 3.0444 
1 -1.87995 2.19316 -3.16027 
1 2.88826 1.54353 2.82695 
1 0.94336 1.95399 -2.29914 
1 -0.0604027 0.722453 2.89433 
1 -0.571232 -2.25199 3.0319 
1 -0.940035 2.09403 1.27845 
1 -0.0792496 -1.30851 2.69033 
1 -0.116539 -2.36528 -0.786375 
1 0.392056 2.90265 -3.17134 
1 3.54699 1.19495 0.469166 
1 0.910419 1.95343 -3.38145 
1 0.0217127 1.5753 3.58999 
1 -0.129004 0.313552 -1.43532 
1 -0.825399 -0.219173 -0.706492 
1 -2.12715 -2.49247 -3.5138 
1 -0.686865 3.417 2.42361 
1 -2.29048 -2.10177 -2.35828 
1 -0.0636942 2.62079 1.71886 
1 -0.988656 2.5235 -2.7066 
1 -0.856946 0.738634 -0.198027 
1 1.88812 2.38717 -1.89118 
1 -1.96395 -2.24449 -0.118564 
1 1.54967 -2.88339 0.364519 
1 -3.03647 -1.30146 2.25125 
1 0.397212 -0.597878 0.287118 
1 -1.99729 0.114438 3.14002 
1 -1.75685 3.30544 -2.9811 
1 2.06971 -0.141201 1.24419 
1 3.57531 3.15434 -2.24571 
1 1.8009 0.154765 -2.77129 
1 -2.23702 -3.22883 2.31204 
1 -2.19868 3.63466 -1.35677 
1 -0.690849 -1.05225 0.870163 
1 0.885993 -0.510037 -2.73218 
1 2.58483 -2.7227 3.33531 
1 -0.416515 3.11843 -0.0952668 
1 -3.50726 0.455657 -1.45476 
1 -0.19362 3.48202 3.38384 
1 -3.42964 0.551446 1.19093 
1 -1.0984 3.56594 -1.12843 
1 -0.409314 -3.48969 0.50983 
1 1.98042 0.676595 -3.65389 
1 1.83479 -1.29257 3.12698 
1 -1.69266 1.527 1.7799 
1 0.912791 2.38235 -1.28824 
1 1.52891 -1.82422 0.546941 
1 -3.02155 1.37967 -1.78156 
1 -3.41541 1.79938 -2.73895 
1 -3.0947 -3.00632 2.90434 
1 -1.60368 -0.642271 1.3408 
1 -2.03449 0.954268 -1.80187 
1 0.979906 -1.55403 2.58592 
1 2.64841 0.594181 0.229413 
1 2.8327 2.85209 -1.49274 
1 1.96197 -1.33574 1.37719 
1 -2.11806 -0.0980513 -1.88487 
1 -2.58081 1.80632 3.57574 
1 -2.56488 3.67838 -0.29293 
1 -1.69425 3.0477 2.65753 
1 -3.46277 -3.38549 -2.5701 
1 -2.44605 1.36457 -2.76433 
1 1.48422 2.85544 2.52593 
1 0.126096 -3.50377 -1.75322 
1 1.15636 0.995039 -2.90917 
1 0.198107 0.631968 1.80265 
1 1.08246 2.38494 -0.224727 
1 2.4794 0.267278 -0.763005 
1 1.06226 0.121265 -3.58943 
1 2.55811 2.46668 -3.48355 
1 -2.54437 -1.53959 -3.22287 
1 -0.479613 -2.99782 -3.69595 
1 -2.34046 -3.14536 -2.65935 
1 -2.79954 0.814724 3.1344 
1 -1.6839 0.290839 -0.985299 
1 3.04122 0.619932 -3.70818 
1 0.178846 3.63947 1.8264 
1 3.74882 -0.76177 -0.528171 
1 1.74081 1.20231 -1.91099 
1 -2.40944 -1.32206 0.017156 
1 -2.94269 -3.0904 -1.71099 
1 2.8036 -0.947226 0.938332 
1 0.0665565 -1.45596 -0.333303 
1 0.11217 1.62697 2.38939 
1 1.78026 2.83873 0.845849 
1 -0.918918 -1.75067 0.0710837 
1 -0.877864 0.805919 3.6695 
1 -0.0658067 -0.491675 -3.19579 
1 -0.30409 -3.41202 -0.650364 
1 1.95915 -2.98943 -2.28709 
1 0.162108 -0.50259 -0.756864 
1 1.77241 1.82725 -0.917816 
1 2.63139 1.7568 -1.53665 
1 -1.09135 1.32481 -1.47873 
1 1.11944 -1.20081 -0.247438 
1 -1.80523 0.469367 1.82192 
1 1.18512 3.63225 0.587615 
1 -1.41446 -0.726014 2.94395 
1 2.49446 -2.14762 -1.62616 
1 3.5737 0.908861 -2.39916 
1 2.89942 -1.39094 1.95324 
1 -2.09447 -3.16745 0.517145 
1 2.67862 1.4513 -0.469157 
1 0.981811 -2.64533 -1.96595 
1 3.19004 -2.39347 0.0858568 
1 -0.715455 -2.87076 -1.59655 
1 -0.812861 1.4858 2.87751 
1 3.62158 -0.631004 2.40329 
1 -1.68389 -1.54082 0.742062 
1 2.50392 3.04772 -2.59827 
1 3.40975 -3.12154 1.51507 
1 -0.515374 -1.53299 -2.86068 
1 -1.07695 0.366073 2.62623 
1 -3.28746 -2.2696 -2.87169 
1 -1.43423 -0.161948 -3.48232 
1 -3.11702 -0.70609 -3.47913 
1 -1.23674 3.53334 3.45901 
1 0.98495 3.46239 -1.28518 
1 -3.10114 -0.695824 0.433427 
1 -1.40367 -3.21228 -3.23536 
1 2.29056 -2.41947 -3.15546 
1 0.681938 -0.684004 2.12866 
1 2.54004 1.00363 -2.76525 
1 -2.52968 -2.21087 2.38672 
1 1.83161 -1.2804 -1.55373 
1 -2.78103 2.5679 1.18983 
1 2.01105 -0.702878 -0.633086 
2 1.64655 0.0670935 -0.936686 
2 0.408234 -3.01021 -2.51441 
2 -0.92682 -0.793622 -3.12685 
2 3.63335 -0.692189 0.890509 
2 2.45173 3.41839 1.09104 
2 -3.35419 3.27876 -2.92356 
2 1.83719 3.65611 -2.66876 
2 -0.333363 1.13499 -3.1182 
2 -1.63066 -1.46923 -0.40317 
2 1.77405 -3.38281 1.02959 
2 -1.31448 2.79287 -3.5214 
2 -0.778522 1.86788 -2.16407 
2 0.188485 -2.65255 -1.54527 
2 2.61014 0.158989 3.11884 
2 -3.13118 -1.56735 0.69832 
2 -3.54779 0.419066 3.44923 
2 -2.5246 3.6092 -3.28922 
2 1.28923 -0.669013 -1.97332 
2 1.28863 -0.15742 0.741997 
2 -1.43869 0.0851538 -0.17046 
2 -1.65871 3.56485 0.890971 
2 2.21469 1.06236 -1.13994 
2 2.06432 -0.00742177 -0.00947098 
2 -0.708343 -3.65517 1.60175 
2 2.71909 -2.55131 -2.40102 
2 1.25643 -1.29444 -2.83427 
2 2.96622 -1.08115 3.55567 
2 2.57981 -3.02653 -1.60297 
2 -0.5456 -0.888127 -0.0930967 
2 1.58908 3.08061 -0.0206551 
2 0.605028 2.95658 2.32649 
2 -3.42308 2.02202 -3.66054 
2 1.59992 -2.13392 -1.56454 
2 -1.28387 1.01547 -2.26583 
2 -3.06795 2.16701 -1.32432 
2 -0.861972 0.599999 -1.05722 
2 -3.01031 0.177697 0.489987 
2 -2.38866 0.46543 2.45612 
2 2.71682 -2.07191 -0.626588 
2 3.33485 -1.89092 -1.58609 
2 -1.75054 -1.87658 -3.022 
2 3.44899 -3.0552 0.624873 
2 -1.47816 -0.288195 2.16025 
2 2.26856 -2.3395 0.431747 
2 2.20965 -1.95879 3.57244 
2 0.880416 -2.11941 -2.67405 
2 -1.26498 0.891692 1.23275 
2 -1.43688 -0.302709 -2.47135 
2 -0.73236 -3.36387 3.01299 
2 2.76367 0.947825 2.16397 
2 0.163688 -1.05543 -2.51339 
2 1.24541 2.96362 -1.93596 
2 -2.64764 0.658944 1.55634 
2 -2.32783 2.75815 -1.3686 
2 -2.59395 -2.90121 -0.169179 
2 -2.42254 1.9823 1.71028 
2 -1.61687 -2.42302 0.700703 
2 -3.42634 -3.66099 1.17723 
2 -1.52079 -3.58992 2.63926 
2 0.0787194 3.54072 -2.54933 
2 -3.50506 -2.58193 -1.23163 
2 -2.30276 -2.66275 3.10828 
2 3.55554 1.53399 -0.363591 
2 0.994484 -1.41805 3.45615 
2 -2.79659 -0.6517 -0.435789 
2 -2.86625 -0.445189 -2.22739 
2 0.349406 2.41042 3.56951 
2 -2.13067 -0.748378 0.623328 
2 0.410058 1.27616 -2.56257 
2 3.59279 -3.01534 2.41697 
2 -0.52624 -2.40699 -2.93904 
2 -0.451549 1.53621 -0.0506258 
2 -3.06946 -3.68429 -1.06064 
2 3.58862 -1.58215 2.45153 
2 -0.218341 -1.92876 -3.6679 
2 -2.02399 -3.157 1.43398 
2 0.390818 -3.43327 0.919988 
2 1.42932 -2.70777 -0.492013 
2 -2.24435 -0.512759 3.73235 
2 -2.89995 3.56561 2.8616 
2 2.57962 2.28806 -0.813064 
2 -1.77535 1.17458 -0.93656 
2 0.0400047 -2.11597 1.22968 
2 -3.44658 -1.53856 -3.38045 
2 0.956121 0.78752 -0.00373493 
2 -3.26026 -1.39169 -0.191627 
2 -0.888289 2.82926 3.05292 
2 -1.28112 -1.45659 1.49205 
2 2.51442 -0.658677 1.76714 
2 -0.45182 -0.589202 -1.42001 
2 -0.84361 1.70121 3.72297 
2 2.532 -3.21219 1.7242 
2 2.37057 3.29929 2.48531 
2 2.78802 -0.0790582 0.764932 
2 1.6215 0.25455 2.30712 
2 -1.67794 -2.52388 2.40213 
2 -0.94973 -1.45618 2.83331 
2 -0.841216 2.55649 -0.590654 
2 -2.86678 -1.95195 1.57669 
2 -3.63651 -2.5175 -3.67369 
