ITEM: TIMESTEP
171
ITEM: NUMBER OF ATOMS
500
ITEM: BOX BOUNDS xy xz yz pp pp pp
-3.7345 3.78678 0.052283
-3.7345 3.7345 0
-3.7345 3.7345 0
ITEM: ATOMS type xu yu zu 
1 0.0308004 -2.18648 -2.24392 
1 -0.925868 -1.77832 -1.79231 
1 -0.515881 -1.53223 -2.86037 
1 -1.29167 -2.44774 -2.5131 
2 -1.75086 -1.8761 -3.022 
1 -3.29128 -1.21493 -2.53945 
1 -1.16353 -2.31428 -0.823782 
1 -3.28916 -2.27052 -2.87135 
1 -0.714893 -2.86991 -1.59705 
1 -1.48817 -1.21736 -2.52742 
1 -2.29147 -2.1023 -2.35859 
1 -2.8469 -1.39729 -0.948142 
1 -2.54555 -1.54044 -3.2232 
1 -3.11763 -0.706784 -3.47892 
1 -2.34054 -3.14545 -2.6617 
1 -0.116162 -2.364 -0.787316 
1 -3.18685 -2.00512 -1.79534 
1 -2.41663 -1.12916 -1.92716 
1 -2.64332 -2.44224 -0.93573 
1 -1.85283 -2.73245 -1.6102 
1 -0.591271 -0.604778 -2.30185 
1 -0.880079 -1.25615 -0.836444 
1 -2.24418 -0.548639 -2.84887 
2 -1.63077 -1.46731 -0.401711 
1 -1.86901 -1.69509 -1.24319 
1 -2.94222 -3.08983 -1.71333 
2 -0.526709 -2.40624 -2.93908 
1 -1.3414 -0.735613 -1.60144 
1 -3.46286 -3.38497 -2.57259 
2 -0.926992 -0.793317 -3.12693 
1 -1.99555 -0.722096 -0.793218 
1 -0.459625 -3.17716 -2.58159 
1 -0.0155079 -1.39029 -1.44183 
1 -0.825413 -0.218072 -0.706357 
2 -0.451493 -0.590237 -1.41862 
1 -2.93726 -0.400777 -1.29588 
1 -1.40365 -3.21148 -3.2355 
2 -0.544897 -0.885967 -0.0938122 
2 0.163066 -1.05435 -2.51299 
1 0.162046 -0.503018 -0.753798 
2 -1.43722 -0.301615 -2.47306 
2 -2.79655 -0.651339 -0.435151 
1 -1.10025 -2.13037 -3.54067 
1 0.0656033 -1.45638 -0.329915 
2 -3.44879 -1.53944 -3.37978 
2 -3.26141 -1.39119 -0.192513 
1 -1.63131 -1.18829 -3.5846 
1 -1.83841 -3.16332 -0.631962 
1 -3.41529 -3.08107 -0.538259 
1 -0.305659 -3.41052 -0.649489 
2 -2.867 -0.445769 -2.22636 
1 -1.44054 -3.52005 -2.17735 
1 -1.96344 -2.24373 -0.119196 
1 -3.0216 -3.09672 -3.49632 
1 -1.43537 -0.162388 -3.48138 
2 -3.63787 -2.51743 -3.6737 
1 0.12661 -3.50286 -1.75371 
2 -2.59395 -2.90055 -0.169697 
1 -0.0663482 -0.49109 -3.19542 
2 -3.50555 -2.58385 -1.23307 
1 -2.1264 -2.49168 -3.51522 
1 -2.11783 -0.098223 -1.88603 
2 0.18924 -2.65188 -1.5453 
1 0.297645 -2.46796 -3.2183 
1 0.321288 -3.52165 -3.25078 
1 0.361572 -0.498304 -1.84291 
2 0.408327 -3.01002 -2.51463 
1 0.475703 -1.41772 -3.26882 
1 0.731561 -3.00427 -0.962707 
1 0.807137 -2.21876 -0.143416 
1 0.84541 -1.43972 -2.09336 
1 0.852347 -1.9268 -1.15068 
2 -3.06959 -3.68209 -1.06122 
2 0.879552 -2.11879 -2.67382 
1 0.885271 -0.509808 -2.73213 
1 0.981634 -2.64532 -1.96586 
1 1.11634 -0.619815 -1.13763 
1 1.11857 -1.20248 -0.248769 
1 1.20667 -0.0816657 -0.142808 
2 -0.217783 -1.92745 -3.66774 
1 1.23617 -2.88203 -3.02672 
2 1.25588 -1.294 -2.83477 
1 -0.479756 -2.99753 -3.69639 
2 1.28896 -0.667824 -1.97318 
1 1.39592 -1.90917 -3.42196 
1 -3.69669 -1.12884 -1.54398 
2 1.42979 -2.70842 -0.491615 
1 -3.14045 -2.21098 -0.018197 
1 0.955636 -3.72376 -2.37549 
1 1.46947 -0.820672 -3.5254 
1 1.47948 -3.60037 -0.454459 
2 1.60096 -2.13546 -1.5643 
1 1.74017 -1.92774 -2.4095 
1 1.7696 -2.93663 -1.25988 
1 1.83075 -1.28151 -1.55329 
1 1.8296 -1.93485 -0.696655 
1 -2.54245 -1.20243 1.25986 
1 -1.83312 -2.30205 1.56115 
1 -0.837042 -2.1156 1.09886 
1 -1.6835 -1.54045 0.741901 
2 0.0407747 -2.11577 1.22959 
2 -2.12977 -0.748343 0.622881 
1 -1.60076 -0.64204 1.339 
1 -3.59655 -2.32516 0.928794 
2 -1.27936 -1.45644 1.49126 
1 -1.21618 -3.12313 1.10675 
2 -2.86625 -1.952 1.57583 
2 -1.61629 -2.42253 0.699978 
1 -2.50553 -2.17889 0.778341 
1 -3.10148 -0.695357 0.433539 
1 -0.409796 -3.48963 0.511617 
2 -3.12948 -1.56747 0.696782 
1 -0.68764 -1.05256 0.869345 
1 -2.83327 -2.84871 1.47885 
1 -3.23527 -0.466146 1.5246 
1 -0.190151 -2.94145 1.38713 
1 0.0167486 -1.3283 1.60908 
1 -0.528169 -0.135371 0.346584 
2 -0.708802 -3.65463 1.6014 
1 0.0751003 -0.325596 1.29084 
1 -1.4 -0.75213 0.0946739 
1 -2.09383 -3.16727 0.515852 
1 -0.919412 -1.75067 0.0709529 
1 -2.41622 -0.043044 1.08613 
2 -2.02431 -3.15665 1.43325 
1 -3.15859 -3.19815 0.48559 
1 -1.10986 -2.83726 0.0889015 
1 -0.163462 -2.42697 0.329948 
1 -3.67248 -1.39915 1.39483 
1 0.40046 -0.599213 0.291291 
2 0.391004 -3.43442 0.92389 
1 0.508787 -3.20121 0.0517025 
1 0.419137 -1.57625 0.654229 
1 0.7066 -2.56638 0.881911 
1 0.988808 -1.84419 1.57608 
1 1.03616 -0.866048 1.15218 
1 1.03678 -3.28211 1.51161 
2 -3.42588 -3.66224 1.17644 
2 1.28136 -0.160689 0.739464 
1 -2.41044 -1.32232 0.0180351 
1 -2.26693 -0.105192 0.0374886 
1 1.54947 -2.88425 0.364954 
1 1.52863 -1.82544 0.544869 
2 1.77558 -3.38265 1.03013 
1 1.84888 -0.76334 0.424208 
1 -3.32409 1.09008 -3.47787 
1 -3.50826 0.455016 -1.45407 
1 -3.41566 1.7974 -2.73791 
1 -3.09862 1.61947 -0.653278 
1 -3.1841 0.121984 -0.379376 
1 -3.02236 1.37955 -1.7809 
1 -2.89606 0.436697 -2.39614 
1 -2.61864 0.256982 -3.44465 
1 -2.60001 0.768313 -0.943532 
1 -2.4464 1.36468 -2.764 
1 -2.03569 0.954277 -1.802 
1 -1.88929 1.05067 -3.63886 
1 -1.88805 0.875648 -0.115334 
2 -1.7763 1.17502 -0.937146 
1 -1.8018 0.482514 -2.73115 
1 -1.68446 0.291155 -0.986043 
2 -1.4394 0.0858292 -0.171464 
2 -1.28496 1.01592 -2.26579 
1 -1.16927 1.73891 -0.535375 
1 -1.11206 1.4705 -2.96432 
1 -1.09234 1.32548 -1.47912 
1 -1.09246 0.271671 -1.8621 
1 -3.66811 0.137517 -3.14939 
1 -0.856045 0.738691 -0.197412 
2 -0.86292 0.601194 -1.05704 
1 -0.730303 0.328617 -2.86114 
2 -0.450882 1.53658 -0.0513708 
1 -0.384684 1.09258 -2.20958 
2 -0.335108 1.13587 -3.11803 
1 -0.216687 1.22602 -0.899453 
1 -0.130211 0.313219 -1.43394 
1 0.128605 0.547736 -3.54211 
1 0.142744 0.447742 -0.242508 
1 0.306428 0.365766 -2.51159 
2 0.409662 1.27594 -2.56427 
1 0.608784 1.12352 -1.72075 
1 0.806564 1.43 -0.662006 
1 0.849155 0.416998 -0.983092 
1 1.06012 0.121623 -3.59118 
1 1.15682 0.994113 -2.90869 
1 1.19338 0.218372 -1.93511 
2 1.6467 0.0659235 -0.937064 
1 1.70261 0.842011 -0.449724 
1 1.73977 1.20489 -1.90941 
1 1.77214 1.82759 -0.915868 
1 1.79997 0.151424 -2.77653 
1 1.87752 1.83548 -2.88397 
1 -3.42966 0.551975 1.19228 
1 -2.95602 1.49395 1.19237 
1 -2.9068 0.997949 0.200252 
2 -3.01017 0.178032 0.492002 
2 -2.64667 0.657674 1.55629 
1 -2.10766 0.959868 0.926538 
1 -1.80396 0.469497 1.82169 
1 -1.69269 1.52721 1.7793 
1 -1.43737 0.212787 0.688672 
2 -1.26455 0.893223 1.23259 
1 -1.1791 1.42483 0.510271 
1 -0.849089 0.0912002 1.58146 
1 -0.41714 0.783963 0.8616 
1 0.040655 1.63281 1.3269 
1 0.196881 0.633561 1.80316 
1 0.351045 1.37341 0.301991 
1 0.587752 0.378003 0.696165 
1 0.981385 1.18519 1.23156 
2 0.956502 0.787777 -0.00262352 
1 1.11778 0.14261 1.59756 
1 1.44311 1.5539 0.287553 
1 1.66622 0.595199 0.611302 
1 1.84578 -2.52408 1.35371 
1 1.92614 -0.843894 -2.52785 
1 1.93905 0.884298 1.69046 
1 1.95781 -2.99099 -2.28712 
1 1.96392 -1.34016 1.37536 
1 1.98019 0.674802 -3.65737 
1 2.01082 -0.703555 -0.633567 
2 2.06254 -0.00770998 -0.0102052 
1 2.06583 -0.143766 1.24364 
1 2.28849 -2.42004 -3.15485 
2 2.57874 -3.02762 -1.60349 
1 3.56761 -3.60046 -1.42643 
1 3.12697 -2.74486 -0.980337 
1 3.25545 -2.81811 -3.06778 
1 3.67024 -1.87067 -0.757726 
1 3.17997 -0.27174 -1.28681 
1 3.1389 -3.43583 -0.123643 
1 2.82487 -0.0315493 -2.59522 
2 2.71841 -2.55356 -2.40184 
1 2.11087 -0.23198 -1.65455 
1 3.75461 -0.289413 -2.18976 
1 2.83072 -0.497117 -0.0366831 
2 3.3355 -1.89068 -1.58798 
1 2.81974 -1.287 -0.998625 
1 3.2234 -1.8951 -3.58108 
2 2.71735 -2.07244 -0.625558 
1 3.74707 -0.761548 -0.528062 
1 2.52136 -3.66131 -0.994683 
1 3.33377 -0.891645 -3.1154 
1 3.47681 -2.68031 -1.97041 
1 2.30148 -2.81834 -0.32743 
1 2.86258 -3.48892 -2.27817 
1 3.22386 -1.82438 -2.51586 
1 2.29908 -3.46928 -3.30074 
1 2.8389 -0.981644 -2.03621 
1 2.46653 -0.335929 -3.58082 
1 2.49477 -2.14809 -1.62784 
1 2.36999 -1.36443 -3.29614 
2 2.78668 -0.0774316 0.767345 
2 2.53345 -3.2134 1.72312 
2 2.26865 -2.33974 0.432708 
1 2.58662 -3.06969 0.826899 
1 3.23959 -0.202913 1.51981 
2 3.45018 -3.05499 0.623834 
2 3.63348 -0.691986 0.89157 
2 2.51333 -0.659838 1.76514 
1 3.41113 -3.12162 1.514 
1 2.80324 -0.945926 0.937157 
1 2.49093 -1.55566 0.0622913 
1 3.19124 -2.39344 0.0850611 
1 2.82463 -2.03488 1.07169 
1 3.53482 -1.41097 0.338407 
1 3.22391 1.62876 -3.51022 
2 3.55503 1.53466 -0.36339 
1 2.47925 0.267851 -0.763162 
1 3.51982 1.3624 -1.24116 
2 2.21458 1.06341 -1.13924 
1 2.6781 1.45176 -0.467705 
1 2.76544 0.672979 -1.72058 
1 3.42094 0.655736 -0.487968 
1 2.53839 1.0006 -2.76791 
1 2.63101 1.75853 -1.53493 
1 3.57221 0.90686 -2.39914 
1 3.04139 0.61915 -3.71098 
1 3.58131 0.0516864 0.420162 
1 2.51988 1.55978 0.645184 
1 2.70622 1.69143 1.70843 
1 2.915 0.739199 1.26263 
1 2.64659 0.594362 0.230116 
1 3.54733 1.19451 0.469086 
1 -3.58567 3.33588 -0.529047 
2 -3.42333 2.02154 -3.65912 
2 -3.35431 3.27824 -2.92356 
1 -3.16036 3.03609 -1.48729 
2 -3.06845 2.16747 -1.32395 
1 -2.85352 2.59977 -3.15787 
1 -2.77683 2.64733 -0.584771 
1 -2.65197 3.3637 -2.37817 
1 -2.65108 2.32316 -2.12006 
1 -2.56525 3.67893 -0.293517 
2 -2.32785 2.75866 -1.36796 
1 -2.19912 3.63549 -1.35716 
1 -2.18759 1.89882 -1.22471 
1 -2.15814 1.89566 -0.159434 
1 -1.88024 2.1936 -3.16013 
1 -1.75723 3.30579 -2.98101 
1 -1.71533 2.7883 -0.704448 
1 -1.71478 2.92758 -1.97866 
1 -1.66902 1.87502 -2.16288 
2 -1.3144 2.79355 -3.521 
1 -1.09933 3.56741 -1.1289 
1 -0.979022 2.40044 -1.43953 
1 -0.988749 2.52419 -2.70607 
2 -2.52431 3.61147 -3.28877 
2 -0.840202 2.55683 -0.591013 
2 -0.779172 1.86798 -2.16429 
1 -0.632795 3.42388 -3.12249 
1 -0.602396 3.25901 -2.04842 
1 -0.50497 2.5058 -3.6846 
1 -0.415885 3.11909 -0.0948784 
1 -0.0811424 3.05761 -1.13663 
1 -0.0351076 1.98279 -1.67729 
1 -0.0831824 1.9571 -2.81606 
1 0.000981082 2.18898 -0.532549 
2 0.0782867 3.54123 -2.54931 
1 0.396917 2.86986 -2.10418 
1 0.39255 2.903 -3.17036 
1 0.607553 3.29071 -0.297259 
1 0.912382 2.38245 -1.28784 
1 0.911208 1.95387 -3.38121 
1 0.941917 1.95502 -2.2992 
1 0.984749 3.4627 -1.28519 
1 1.08284 2.38205 -0.224577 
2 1.24439 2.96384 -1.93629 
1 1.36173 3.61208 -3.4277 
1 1.43182 2.80965 -2.77102 
2 1.58693 3.07998 -0.0182709 
2 1.83854 3.65302 -2.66815 
1 1.88661 2.38729 -1.88928 
1 1.87145 2.91197 -0.880073 
1 -3.59433 3.04203 1.56373 
1 -3.2321 3.19731 0.471152 
1 -3.1482 2.09216 0.300974 
1 -2.77985 2.56795 1.18893 
1 -2.49465 3.6107 1.23301 
2 -2.42177 1.98272 1.70969 
1 -2.17086 2.96182 0.395664 
1 -1.99682 1.98702 0.861411 
1 -1.79652 2.64239 1.63818 
2 -1.6578 3.56607 0.890253 
1 -1.51942 3.6317 1.77469 
1 -1.23852 2.48398 0.234084 
1 -0.86397 3.15933 1.03027 
1 -1.35736 3.58195 0.0478127 
1 -0.938886 2.09359 1.27859 
1 -0.24061 2.24028 0.497742 
1 -0.0630969 2.62159 1.72021 
1 0.178866 3.64095 1.82518 
1 0.239255 3.16834 0.807279 
1 0.813994 2.25976 0.833353 
1 1.03408 3.09654 1.55092 
1 1.18489 3.6322 0.589839 
1 1.74588 1.8881 1.28632 
1 1.78209 2.84089 0.849445 
1 1.94077 3.51338 -1.80227 
1 1.9312 3.63015 1.77445 
1 3.57606 3.15536 -2.24468 
1 2.8721 3.01482 -0.371909 
1 3.56405 2.60657 -3.16078 
1 2.55858 2.4655 -3.48239 
1 3.59509 2.34658 -0.830243 
1 2.50509 3.04412 -2.59566 
1 3.69603 2.19832 -1.85434 
1 3.32962 3.60348 -3.18765 
1 2.8329 2.8526 -1.4913 
1 2.89961 2.01362 -2.53507 
2 2.57857 2.28863 -0.81107 
1 2.95693 3.41826 1.79938 
1 3.61923 2.03192 1.19509 
1 2.24934 3.60886 0.263224 
1 2.15342 2.33283 -0.00718182 
1 3.29774 3.5508 0.793827 
1 2.79509 2.6239 0.96381 
2 2.45501 3.42048 1.09073 
1 3.26128 2.17897 0.147707 
1 -1.02202 -1.97177 2.14035 
1 -0.570219 -2.251 3.03198 
1 -0.966547 -3.02637 2.19557 
1 -2.3654 -0.385549 2.19038 
1 -2.52892 -2.21056 2.38602 
1 -1.41419 -0.725488 2.94301 
2 -1.6773 -2.52316 2.40174 
1 -1.89689 -1.34473 2.1353 
1 -1.70543 -1.89128 3.04798 
1 -2.45992 -1.13662 3.14924 
1 -3.03556 -1.30172 2.25083 
1 -2.23659 -3.22826 2.31141 
1 -3.55332 -2.28207 2.00585 
1 -1.44183 -2.8938 3.17703 
2 -1.52132 -3.58981 2.63927 
2 -1.47643 -0.288378 2.15886 
2 -0.949069 -1.45526 2.83235 
1 -0.867145 -0.925655 2.05132 
1 -2.95236 -2.07975 3.42679 
2 -0.732827 -3.36397 3.01293 
1 -3.09469 -3.0072 2.90218 
2 -2.30279 -2.66319 3.10726 
1 -0.0782942 -1.30867 2.69043 
1 -2.27611 -3.52816 3.35775 
1 -3.02706 -0.233126 3.06171 
1 -0.190246 -0.203678 2.3906 
1 0.0327565 -3.15053 2.68447 
1 0.0078384 -2.22567 2.12749 
1 -0.531057 -0.16115 3.38738 
1 -3.27844 -3.5669 2.05444 
1 -0.60424 -1.18614 3.60028 
1 -3.6465 -1.28312 3.2443 
1 0.466227 -2.12659 3.274 
1 0.504265 -0.686126 3.347 
1 0.681549 -0.682065 2.1333 
1 0.857357 -3.12976 3.38996 
1 0.969201 -3.68088 2.46616 
2 0.99415 -1.41458 3.45644 
1 0.982011 -1.55321 2.58633 
1 0.938176 -2.61237 2.34472 
2 -2.2454 -0.51277 3.73214 
1 1.57728 -2.37581 3.14995 
1 1.76895 -0.153602 3.10246 
1 1.73112 -0.675564 2.17494 
1 1.83677 -1.29459 3.13016 
1 1.82968 -3.72664 3.10703 
2 -3.54815 0.419009 3.44752 
1 -3.51669 1.569 2.99707 
1 -3.22305 0.342053 2.20546 
1 -2.79912 0.81526 3.13396 
1 -2.58145 1.80797 3.57498 
1 -2.68471 1.25489 2.17896 
2 -2.38735 0.465657 2.45623 
1 -1.99668 0.115099 3.1407 
1 -1.81367 1.12849 2.77247 
1 -1.07699 0.366842 2.62621 
1 -0.879393 0.806808 3.66979 
1 -0.812432 1.48727 2.87821 
1 -0.735033 1.12592 1.88996 
1 -0.0612034 0.724068 2.89543 
1 0.0211538 1.57624 3.59121 
1 0.112492 1.62807 2.38963 
2 -0.844264 1.70209 3.72355 
1 0.827804 0.162002 2.75187 
1 1.00415 1.06947 3.39904 
1 1.06361 1.08109 2.30632 
2 1.6191 0.251229 2.30557 
1 1.84218 1.79807 2.37843 
1 1.95056 1.68224 3.47802 
1 1.94078 -1.89876 2.25337 
1 1.92166 -2.97138 2.33982 
1 2.06772 0.845604 2.78448 
2 3.589 -1.58299 2.45124 
1 2.77463 -1.71369 2.94395 
2 2.21507 -1.95937 3.57303 
1 2.90125 -1.39016 1.95146 
1 2.64774 -0.692973 2.80799 
1 3.62299 -0.632237 2.40375 
2 3.59326 -3.01647 2.41497 
1 2.83184 -3.41928 2.58956 
2 2.9647 -1.0823 3.55503 
1 3.42587 -0.316245 3.42296 
1 3.50051 -3.28457 3.42369 
1 2.85854 -2.45664 2.12952 
1 3.57907 -2.33086 2.97826 
1 2.58847 -2.72382 3.33827 
1 3.64623 1.23734 1.97132 
1 2.88799 1.54049 2.82896 
2 2.7626 0.94589 2.16446 
2 2.60722 0.159226 3.11717 
1 3.33848 0.52524 2.73637 
1 2.4965 0.115548 2.18863 
1 -3.2387 3.39179 3.68065 
1 -3.21724 2.15221 2.08312 
1 -3.04603 2.59108 3.04217 
2 -2.90042 3.56421 2.86066 
1 -2.62975 3.06228 2.16785 
1 -2.20258 2.12326 2.5567 
1 -2.18288 2.92659 3.58133 
1 -1.69393 3.04754 2.65766 
1 -1.46154 2.1809 3.32321 
1 -1.23683 3.5339 3.45909 
1 -0.986225 2.34282 2.30237 
2 -0.888113 2.83004 3.05323 
1 -0.686764 3.41737 2.42312 
1 -0.193343 3.48259 3.38348 
1 -0.0551151 2.58523 2.80443 
2 0.349413 2.41066 3.57054 
2 0.605746 2.95616 2.32776 
1 0.760285 3.14454 3.25788 
1 0.923098 2.06114 2.99278 
1 0.904419 2.1231 1.91499 
1 1.48596 2.85682 2.52664 
1 1.605 2.67262 3.6203 
1 2.41338 2.51564 2.90909 
1 3.68543 3.32371 2.71016 
1 2.23896 2.6426 1.84612 
1 2.82506 3.3539 3.39365 
1 3.41083 2.44435 3.28504 
1 3.24369 2.44287 2.21999 
2 2.37034 3.29913 2.48725 
