ITEM: TIMESTEP
282
ITEM: NUMBER OF ATOMS
500
ITEM: BOX BOUNDS xy xz yz pp pp pp
-3.7345 3.80172 0.067221
-3.7345 3.7345 0
-3.7345 3.7345 0
ITEM: ATOMS type xu yu zu 
1 3.23348 -1.89131 -3.57758 
1 -1.62514 -1.18836 -3.58357 
1 -2.94851 -2.07663 3.42922 
1 2.82525 -1.28372 -0.998986 
1 0.934999 2.05685 2.99228 
1 3.25066 2.44789 2.21468 
1 2.65338 -0.69195 2.81041 
1 -0.58649 3.25418 -2.04866 
1 2.7824 0.671188 -1.71765 
1 -3.08603 1.62112 -0.652121 
1 0.862246 -3.13023 3.39011 
1 0.734984 -3.00331 -0.96567 
1 -1.22694 2.48271 0.234853 
1 -1.02261 -1.97284 2.14184 
1 -2.60909 0.256781 -3.44368 
1 -2.53914 -1.20373 1.26066 
1 -1.44039 -2.89527 3.17792 
1 -0.719936 0.32856 -2.86061 
1 1.03504 -0.861407 1.13285 
1 0.368578 -0.501128 -1.84573 
1 1.37659 3.60962 -3.42911 
1 3.60897 2.34837 -0.831515 
1 -1.98661 1.98751 0.863046 
1 -1.398 -0.756559 0.0911759 
1 3.70995 2.19748 -1.85474 
1 2.88407 3.01467 -0.375991 
1 1.1337 0.141882 1.60131 
1 1.56662 -2.36514 3.14542 
1 -0.618038 3.42191 -3.12167 
1 3.19167 -0.270207 -1.28481 
1 0.812289 -2.21279 -0.140781 
1 -2.1002 0.961783 0.928176 
1 -0.0159708 -1.38995 -1.45053 
1 1.07621 1.07813 2.30938 
1 1.88983 1.83657 -2.888 
1 1.86273 -0.761265 0.42669 
1 2.49409 -1.55646 0.06119 
1 1.75015 -1.9255 -2.40922 
1 -3.21719 0.344006 2.20356 
1 -0.84847 3.16044 1.02793 
1 -1.83251 -2.3026 1.5621 
1 -3.1823 -2.00641 -1.79602 
1 -2.67631 1.2561 2.18158 
1 -3.31317 1.09079 -3.47546 
1 2.71748 1.6953 1.70278 
1 0.851535 -1.92529 -1.1491 
1 0.514811 -0.690177 3.34623 
1 -0.867262 -0.926724 2.05388 
1 3.76366 -0.288373 -2.18829 
1 3.24563 -0.201877 1.51533 
1 -0.845715 0.0870374 1.58126 
1 0.51318 -3.19424 0.0481538 
1 -1.15741 1.73875 -0.534974 
1 -0.373028 1.09183 -2.20935 
1 -2.23416 -0.547991 -2.84843 
1 3.43027 -0.311692 3.4241 
1 -0.924925 -1.78485 -1.79146 
1 3.23647 1.63175 -3.5098 
1 0.0365152 -3.15031 2.68698 
1 -1.28922 -2.45131 -2.51378 
1 -3.22772 3.39343 3.67932 
1 -1.08307 0.268897 -1.86129 
1 -3.28396 -1.21338 -2.53928 
1 1.95425 3.51633 -1.80464 
1 -0.974293 2.34146 2.30207 
1 1.88567 2.91163 -0.886071 
1 0.91385 2.12069 1.91518 
1 -2.17415 1.89791 -1.22448 
1 1.01678 1.0653 3.39895 
1 1.95159 0.886979 1.69486 
1 2.91203 2.0258 -2.53687 
1 -0.161708 -2.42905 0.332075 
1 -0.963564 -3.02727 2.19567 
1 3.67266 -1.86902 -0.754629 
1 1.75496 1.88669 1.28535 
1 1.71385 0.8442 -0.447574 
1 3.30842 3.54972 0.794749 
1 -2.62095 3.06241 2.17312 
1 2.51215 0.119765 2.1928 
1 1.19611 0.21353 -1.92509 
1 -2.14552 1.89599 -0.158466 
1 0.1474 0.441606 -0.233861 
1 -0.181562 -0.208393 2.38544 
1 -1.3444 3.58093 0.0503119 
1 -1.78804 2.64314 1.64008 
1 3.34606 3.6108 -3.18607 
1 -1.87635 1.04514 -3.63752 
1 2.24497 2.64573 1.84035 
1 -0.520634 -0.164988 3.38327 
1 -0.0643684 3.0531 -1.1379 
1 -0.966337 2.3982 -1.43841 
1 -1.21384 -3.12546 1.10698 
1 3.49773 -3.27881 3.42406 
1 0.851522 -1.44373 -2.09339 
1 3.34061 -0.888467 -3.11381 
1 3.59082 0.0512955 0.415229 
1 -3.57995 3.04901 1.56934 
1 0.254645 3.16987 0.807671 
1 -0.0417617 2.58423 2.8018 
1 -0.0702704 1.95582 -2.81714 
1 -2.16843 2.92701 3.5806 
1 -3.57168 3.33538 -0.528107 
1 2.2644 3.60852 0.262938 
1 -2.83929 2.60256 -3.15982 
1 -2.50432 -2.17697 0.778908 
1 -1.70032 2.92564 -1.9794 
1 2.84489 -0.975256 -2.03674 
1 2.9659 3.41906 1.79495 
1 -1.16209 -2.31577 -0.822078 
1 1.83055 -1.93225 -0.697439 
1 2.30279 -2.81694 -0.329746 
1 1.61405 2.66946 3.62044 
1 3.23219 -1.82007 -2.5115 
1 2.52311 -3.66007 -0.998286 
1 2.86034 -2.45794 2.13783 
1 2.81949 -2.03762 1.0763 
1 0.773075 3.14465 3.25491 
1 -0.492118 2.50344 -3.68611 
1 -0.724712 1.12059 1.88889 
1 -3.022 -3.10038 -3.4898 
1 -3.69254 -1.13053 -1.54497 
1 -1.80524 1.12678 2.77375 
1 -3.67304 -1.39777 1.39663 
1 2.29836 -3.468 -3.30483 
1 -0.185771 -2.94518 1.38553 
1 0.711246 -2.56033 0.88265 
1 0.359628 1.36949 0.303695 
1 -1.0983 1.46818 -2.96525 
1 2.37627 -1.36429 -3.29854 
1 -0.458313 -3.1792 -2.58084 
1 -1.48158 -1.22093 -2.52748 
1 -2.83075 -2.84741 1.47825 
1 -2.40975 -1.12825 -1.92782 
1 2.16585 2.33058 -0.0155208 
1 0.0123601 -1.3292 1.60921 
1 0.60583 0.374143 0.698554 
1 3.53323 1.36504 -1.2408 
1 1.93281 -0.839573 -2.53079 
1 -2.88593 0.437911 -2.39629 
1 -2.94893 1.49407 1.19473 
1 -3.23071 -0.467091 1.52435 
1 3.56882 -3.60176 -1.42726 
1 0.821202 2.25686 0.834645 
1 1.4008 -1.91268 -3.41762 
1 -2.64062 -2.44226 -0.93329 
1 -2.76337 2.6476 -0.585926 
1 2.58295 -3.0701 0.829167 
1 -1.65522 1.87304 -2.16331 
1 1.23974 -2.88612 -3.0258 
1 2.52724 1.56003 0.640486 
1 1.94176 3.63615 1.77622 
1 0.40829 -1.57203 0.651403 
1 -0.532599 -0.138915 0.344468 
1 -3.13553 2.09425 0.301711 
1 -2.63615 3.3625 -2.3785 
1 0.95354 -3.72473 -2.37493 
1 -0.22908 2.24062 0.499523 
1 -3.55254 -2.28194 2.00658 
1 1.94286 -1.89959 2.25106 
1 -1.70341 2.78864 -0.703939 
1 3.34995 0.535472 2.74189 
1 3.63225 2.04064 1.19437 
1 -2.63672 2.32221 -2.12156 
1 1.78056 -0.145193 3.10778 
1 -3.17417 0.123451 -0.383803 
1 -0.0219587 1.98152 -1.67679 
1 3.27307 2.17912 0.145276 
1 3.70453 3.32125 2.70803 
1 1.02746 -3.28822 1.50623 
1 0.412867 2.8669 -2.10699 
1 1.44258 2.80955 -2.77099 
1 0.00878377 2.18602 -0.531365 
1 3.5779 2.61282 -3.17111 
1 -2.58918 0.77001 -0.945071 
1 0.991132 1.18453 1.23448 
1 -3.27764 -3.56004 2.05786 
1 -3.20852 2.15453 2.08683 
1 1.92468 -2.97201 2.35185 
1 2.86554 -3.48692 -2.27628 
1 3.43031 0.655733 -0.491525 
1 3.26278 -2.81296 -3.06269 
1 -2.2749 -3.52649 3.36235 
1 -2.19118 2.12339 2.55789 
1 2.80264 2.62253 0.958909 
1 1.77261 -2.93205 -1.26122 
1 -1.43666 0.209511 0.691619 
1 3.65629 1.24026 1.96755 
1 -1.10948 -2.83766 0.0901636 
1 -3.21919 3.19964 0.47355 
1 -2.89901 0.998243 0.20104 
1 0.00669206 -2.22732 2.1269 
1 1.12457 -0.615957 -1.137 
1 2.92378 0.741477 1.26081 
1 -2.36249 -0.385501 2.18991 
1 1.44959 1.55825 0.286014 
1 -1.89643 -1.34591 2.13785 
1 1.96402 1.68338 3.47625 
1 3.53862 -1.41107 0.336186 
1 0.818181 1.4355 -0.6593 
1 -2.4555 -1.1348 3.14979 
1 3.42104 2.44062 3.27761 
1 -0.835676 -2.11727 1.10079 
1 -1.8516 -2.73511 -1.60996 
1 -3.02343 -0.231909 3.06056 
1 0.481832 -1.41988 -3.26952 
1 3.13117 -2.74484 -0.977598 
1 0.855505 0.420975 -0.972513 
1 -2.41377 -0.0408009 1.08563 
1 -3.14699 3.03478 -1.48936 
1 0.139448 0.543042 -3.54579 
1 2.08593 0.84852 2.79122 
1 1.47395 -0.825784 -3.5272 
1 -0.599149 -1.18799 3.60096 
1 0.318498 0.366834 -2.51426 
1 -0.876068 -1.25918 -0.837306 
1 0.0767637 -0.326961 1.28268 
1 3.13909 -3.43598 -0.122955 
1 -1.50281 3.6306 1.77538 
1 2.47181 -0.333665 -3.57463 
1 3.47815 -2.67845 -1.96672 
1 1.05029 3.09322 1.54896 
1 0.618181 3.2979 -0.298984 
1 -3.59821 -2.32477 0.930616 
1 0.972813 -3.67918 2.46547 
1 -1.43822 -3.52306 -2.17684 
1 1.68339 0.604962 0.614616 
1 -3.5059 1.56593 2.99652 
1 3.5829 -2.32515 2.98034 
1 -1.16902 1.42209 0.512385 
1 -0.584406 -0.607548 -2.30403 
1 2.42254 2.52083 2.90715 
1 -1.44897 2.17917 3.32285 
1 1.8551 1.79794 2.37678 
1 0.464941 -2.12983 3.27097 
1 2.84113 -0.502517 -0.0375605 
1 -1.33425 -0.738175 -1.60334 
1 2.83531 -3.42401 2.58967 
1 -1.86682 -1.69801 -1.24471 
1 2.77501 -1.71185 2.95046 
1 -3.6588 0.139473 -3.14722 
1 2.11976 -0.228651 -1.65414 
1 1.21861 -0.080742 -0.135812 
1 2.84722 3.35254 3.39549 
1 -1.0979 -2.13207 -3.54029 
1 0.0338709 -2.18892 -2.24447 
1 -3.64103 -1.27824 3.24427 
1 -3.41266 -3.08287 -0.538656 
1 -1.99119 -0.723455 -0.797777 
1 -2.84355 -1.39826 -0.948844 
1 -2.48049 3.61008 1.23792 
1 0.0475588 1.6284 1.32652 
1 -0.203431 1.22172 -0.896695 
1 0.301952 -2.46915 -3.21887 
1 0.988607 -1.83253 1.57255 
1 -0.406521 0.776469 0.86097 
1 -1.88098 0.874238 -0.11339 
1 -3.14004 -2.21314 -0.0162157 
1 -3.15974 -3.19746 0.486453 
1 1.83175 -3.73981 3.10717 
1 1.48236 -3.59863 -0.457669 
1 0.837865 0.153613 2.74577 
1 -1.79131 0.479892 -2.72894 
1 -1.70451 -1.89305 3.04959 
1 -1.83718 -3.16512 -0.631305 
1 0.322633 -3.52242 -3.25096 
1 -2.1585 2.96175 0.399634 
1 0.622025 1.12321 -1.71734 
1 0.941158 -2.61148 2.33197 
1 1.83822 -2.53043 1.36054 
1 -2.25963 -0.107177 0.0358483 
1 -2.93348 -0.40303 -1.29868 
1 1.7376 -0.660375 2.17848 
1 2.83634 -0.025351 -2.59532 
1 -3.03334 2.58674 3.04902 
1 -1.86736 2.19256 -3.16019 
1 2.89959 1.54828 2.82326 
1 0.957256 1.95212 -2.29885 
1 -0.050513 0.719173 2.89195 
1 -0.56981 -2.25372 3.03181 
1 -0.93041 2.09472 1.27798 
1 -0.0760553 -1.30854 2.69028 
1 -0.114383 -2.36707 -0.785419 
1 0.404445 2.90223 -3.17313 
1 3.55628 1.19651 0.469534 
1 0.921494 1.95334 -3.3819 
1 0.0340239 1.57339 3.58806 
1 -0.118294 0.314308 -1.43873 
1 -0.81869 -0.221711 -0.706515 
1 -2.12611 -2.49391 -3.51193 
1 -0.672981 3.41592 2.42487 
1 -2.28654 -2.10145 -2.3578 
1 -0.0521689 2.61939 1.71672 
1 -0.97576 2.52221 -2.70744 
1 -0.849876 0.738342 -0.19962 
1 1.90215 2.38749 -1.89358 
1 -1.96208 -2.2458 -0.117563 
1 1.5516 -2.88212 0.363633 
1 -3.03312 -1.30109 2.2517 
1 0.397328 -0.595764 0.279483 
1 -1.99041 0.113176 3.13935 
1 -1.7422 3.30489 -2.98123 
1 2.08362 -0.137558 1.24555 
1 3.58864 3.15219 -2.24797 
1 1.80996 0.161463 -2.76223 
1 -2.23699 -3.23073 2.31419 
1 -2.18273 3.63326 -1.35594 
1 -0.690311 -1.05264 0.870899 
1 0.893229 -0.510641 -2.73272 
1 2.58094 -2.72043 3.32914 
1 -0.403324 3.11723 -0.0958817 
1 -3.49751 0.45727 -1.45575 
1 -0.179545 3.48073 3.38477 
1 -3.4213 0.55076 1.1889 
1 -1.08193 3.56341 -1.12719 
1 -0.407737 -3.48974 0.506211 
1 1.98933 0.679761 -3.64805 
1 1.83679 -1.28879 3.12145 
1 -1.68187 1.52667 1.78094 
1 0.925233 2.38254 -1.28882 
1 1.53308 -1.82239 0.551431 
1 -3.00971 1.38024 -1.7826 
1 -3.40346 1.80416 -2.74147 
1 -3.09341 -3.00505 2.90858 
1 -1.60145 -0.643008 1.34281 
1 -2.02283 0.954109 -1.80155 
1 0.981031 -1.55487 2.5853 
1 2.65991 0.594417 0.228452 
1 2.84564 2.85087 -1.49615 
1 1.963 -1.32753 1.38108 
1 -2.11081 -0.0980481 -1.88291 
1 -2.56792 1.80345 3.57755 
1 -2.54927 3.67766 -0.291797 
1 -1.6814 3.04798 2.65724 
1 -3.46248 -3.38599 -2.56485 
1 -2.43503 1.36455 -2.76451 
1 1.4944 2.85288 2.52485 
1 0.125414 -3.50622 -1.75257 
1 1.16483 0.997339 -2.91057 
1 0.209144 0.62888 1.8017 
1 1.09376 2.38888 -0.225075 
1 2.48799 0.266443 -0.762279 
1 1.07345 0.120826 -3.58613 
1 2.57022 2.46762 -3.48556 
1 -2.53872 -1.53838 -3.22249 
1 -0.478044 -2.99833 -3.69516 
1 -2.33891 -3.14565 -2.6568 
1 -2.7904 0.813694 3.13556 
1 -1.67464 0.290488 -0.984007 
1 3.04914 0.622195 -3.70525 
1 0.193548 3.63663 1.83055 
1 3.75763 -0.761334 -0.528356 
1 1.75229 1.1967 -1.91402 
1 -2.40326 -1.3216 0.0156184 
1 -2.94078 -3.09083 -1.70784 
1 2.80977 -0.950039 0.940683 
1 0.0729632 -1.45477 -0.340202 
1 0.122826 1.62475 2.38917 
1 1.78971 2.8347 0.839425 
1 -0.913817 -1.75113 0.0713175 
1 -0.866446 0.804263 3.66861 
1 -0.0590197 -0.493062 -3.19667 
1 -0.300479 -3.41433 -0.652104 
1 1.96283 -2.9867 -2.2874 
1 0.168562 -0.501225 -0.762669 
1 1.78383 1.82664 -0.92131 
1 2.6424 1.75324 -1.54089 
1 -1.0795 1.32309 -1.4779 
1 1.12623 -1.19782 -0.244332 
1 -1.79889 0.469124 1.82221 
1 1.19993 3.63252 0.584003 
1 -1.40954 -0.727474 2.9453 
1 2.49725 -2.14567 -1.62239 
1 3.58608 0.914083 -2.39863 
1 2.90167 -1.39301 1.95568 
1 -2.09454 -3.16778 0.519672 
1 2.68986 1.4512 -0.47195 
1 0.984111 -2.64383 -1.96636 
1 3.19092 -2.39362 0.0868336 
1 -0.715224 -2.87337 -1.5954 
1 -0.802701 1.48352 2.87635 
1 3.62562 -0.628638 2.40264 
1 -1.68021 -1.54184 0.742122 
1 2.51575 3.05264 -2.6026 
1 3.40812 -3.12137 1.51653 
1 -0.50994 -1.53474 -2.86145 
1 -1.06888 0.364209 2.62584 
1 -3.28209 -2.26774 -2.87202 
1 -1.42518 -0.16178 -3.48343 
1 -3.11003 -0.704326 -3.47876 
1 -1.22191 3.53213 3.45866 
1 0.999466 3.46208 -1.2848 
1 -3.09464 -0.696424 0.433201 
1 -1.40266 -3.21391 -3.23552 
1 2.29602 -2.41937 -3.15765 
1 0.688775 -0.687694 2.11926 
1 2.55357 1.00796 -2.76161 
1 -2.52824 -2.21188 2.38723 
1 1.83816 -1.27788 -1.55425 
1 -2.77052 2.56798 1.1917 
1 2.01744 -0.701498 -0.631936 
2 1.65403 0.0690882 -0.93537 
2 0.409445 -3.01043 -2.51376 
2 -0.920983 -0.795048 -3.12646 
2 3.6388 -0.692259 0.888309 
2 2.45983 3.41556 1.09089 
2 -3.3397 3.28074 -2.92384 
2 1.85014 3.66128 -2.67009 
2 -0.320266 1.13331 -3.11848 
2 -1.626 -1.4724 -0.404739 
2 1.77074 -3.38292 1.02898 
2 -1.30143 2.79166 -3.52194 
2 -0.766086 1.86755 -2.16366 
2 0.188405 -2.65504 -1.54566 
2 2.62264 0.158513 3.12133 
2 -3.12965 -1.56708 0.700255 
2 -3.53958 0.420336 3.45142 
2 -2.51036 3.60534 -3.2907 
2 1.29423 -0.672074 -1.97343 
2 1.30828 -0.152354 0.746614 
2 -1.43005 0.083861 -0.16853 
2 -1.64491 3.56394 0.892375 
2 2.2239 1.06007 -1.14127 
2 2.07484 -0.00672931 -0.00788966 
2 -0.70708 -3.65677 1.60256 
2 2.72112 -2.54545 -2.39989 
2 1.26307 -1.29473 -2.83313 
2 2.97279 -1.07879 3.55712 
2 2.58342 -3.02346 -1.60279 
2 -0.540982 -0.892467 -0.0908917 
2 1.60478 3.08174 -0.0251169 
2 0.617494 2.95682 2.32495 
2 -3.41021 2.02324 -3.66372 
2 1.60095 -2.13016 -1.56509 
2 -1.27228 1.01423 -2.26596 
2 -3.05439 2.1668 -1.32467 
2 -0.851142 0.597105 -1.05792 
2 -3.00276 0.177187 0.487066 
2 -2.38192 0.465077 2.45615 
2 2.71895 -2.07079 -0.628644 
2 3.33753 -1.88988 -1.58391 
2 -1.74711 -1.87779 -3.02204 
2 3.44777 -3.05563 0.626426 
2 -1.47442 -0.288289 2.16213 
2 2.27099 -2.33967 0.430195 
2 2.20578 -1.95667 3.57158 
2 0.88554 -2.12011 -2.67542 
2 -1.25679 0.889497 1.23327 
2 -1.43016 -0.305274 -2.4689 
2 -0.730455 -3.36395 3.01313 
2 2.77443 0.951022 2.16272 
2 0.169809 -1.05761 -2.51406 
2 1.25958 2.9639 -1.93549 
2 -2.64074 0.660952 1.55671 
2 -2.31419 2.75742 -1.36935 
2 -2.59244 -2.90212 -0.168071 
2 -2.4125 1.98158 1.71147 
2 -1.61557 -2.42421 0.702007 
2 -3.42674 -3.65879 1.17872 
2 -1.51902 -3.59034 2.63927 
2 0.0936941 3.53968 -2.54976 
2 -3.50238 -2.58041 -1.23015 
2 -2.30053 -2.66201 3.10947 
2 3.56707 1.53371 -0.363807 
2 1.00028 -1.42369 3.45572 
2 -2.79055 -0.652045 -0.436712 
2 -2.85823 -0.44423 -2.22858 
2 0.361803 2.40986 3.56787 
2 -2.12633 -0.748655 0.623972 
2 0.420764 1.27658 -2.55926 
2 3.59276 -3.01267 2.42015 
2 -0.523336 -2.40862 -2.93918 
2 -0.441543 1.53456 -0.0488493 
2 -3.06861 -3.68679 -1.05972 
2 3.59256 -1.58013 2.45248 
2 -0.215952 -1.93108 -3.66814 
2 -2.02208 -3.15752 1.43606 
2 0.391286 -3.43092 0.912285 
2 1.43056 -2.70627 -0.492863 
2 -2.23636 -0.512925 3.73284 
2 -2.8839 3.56803 2.86395 
2 2.59248 2.28718 -0.817833 
2 -1.76358 1.17405 -0.934932 
2 0.0414482 -2.11698 1.23004 
2 -3.43966 -1.53636 -3.38073 
2 0.9646 0.786762 -0.00533319 
2 -3.25392 -1.39232 -0.190655 
2 -0.875623 2.82731 3.05243 
2 -1.27892 -1.45726 1.49292 
2 2.52239 -0.657168 1.77173 
2 -0.446336 -0.586013 -1.42296 
2 -0.830997 1.69954 3.72208 
2 2.53002 -3.2099 1.72625 
2 2.38496 3.29918 2.48123 
2 2.79728 -0.0820395 0.760721 
2 1.63306 0.260845 2.31007 
2 -1.67658 -2.52584 2.40232 
2 -0.946501 -1.45815 2.83467 
2 -0.830336 2.55684 -0.590381 
2 -2.86504 -1.95148 1.57766 
2 -3.63215 -2.51704 -3.67338 
