ITEM: TIMESTEP
283
ITEM: NUMBER OF ATOMS
500
ITEM: BOX BOUNDS xy xz yz pp pp pp
-3.7345 3.80919 0.07469
-3.7345 3.7345 0
-3.7345 3.7345 0
ITEM: ATOMS type xu yu zu 
1 0.0354165 -2.18892 -2.24447 
1 -0.922975 -1.78485 -1.79146 
1 -0.50774 -1.53474 -2.86145 
1 -1.28794 -2.45131 -2.51378 
2 -1.74526 -1.87779 -3.02204 
1 -3.28144 -1.21338 -2.53928 
1 -1.16068 -2.31577 -0.822078 
1 -3.28063 -2.26774 -2.87202 
1 -0.714363 -2.87337 -1.5954 
1 -1.47907 -1.22093 -2.52748 
1 -2.28491 -2.10145 -2.3578 
1 -2.84121 -1.39826 -0.948844 
1 -2.53652 -1.53838 -3.22249 
1 -3.107 -0.704326 -3.47876 
1 -2.33832 -3.14565 -2.6568 
1 -0.113016 -2.36707 -0.785419 
1 -3.18058 -2.00641 -1.79602 
1 -2.40715 -1.12825 -1.92782 
1 -2.63933 -2.44226 -0.93329 
1 -1.85061 -2.73511 -1.60996 
1 -0.58128 -0.607548 -2.30403 
1 -0.873593 -1.25918 -0.837306 
1 -2.23098 -0.547991 -2.84843 
2 -1.62374 -1.4724 -0.404739 
1 -1.86479 -1.69801 -1.24471 
1 -2.94014 -3.09083 -1.70784 
2 -0.52201 -2.40862 -2.93918 
1 -1.33126 -0.738175 -1.60334 
1 -3.46213 -3.38599 -2.56485 
2 -0.918044 -0.795048 -3.12646 
1 -1.98818 -0.723455 -0.797777 
1 -0.457758 -3.1792 -2.58084 
1 -0.0136263 -1.38995 -1.45053 
1 -0.815178 -0.221711 -0.706515 
2 -0.443187 -0.586013 -1.42296 
1 -2.93015 -0.40303 -1.29868 
1 -1.40214 -3.21391 -3.23552 
2 -0.53814 -0.892467 -0.0908917 
2 0.172485 -1.05761 -2.51406 
1 0.171795 -0.501225 -0.762669 
2 -1.42673 -0.305274 -2.4689 
2 -2.78747 -0.652045 -0.436712 
1 -1.0963 -2.13207 -3.54029 
1 0.0752429 -1.45477 -0.340202 
2 -3.43746 -1.53636 -3.38073 
2 -3.25158 -1.39232 -0.190655 
1 -1.62259 -1.18836 -3.58357 
1 -1.83661 -3.16512 -0.631305 
1 -3.41201 -3.08287 -0.538656 
1 -0.300159 -3.41433 -0.652104 
2 -2.85494 -0.44423 -2.22858 
1 -1.438 -3.52306 -2.17684 
1 -1.96059 -2.2458 -0.117563 
1 -3.02137 -3.10038 -3.4898 
1 -1.4216 -0.16178 -3.48343 
2 -3.63093 -2.51704 -3.67338 
1 0.125643 -3.50622 -1.75257 
2 -2.59161 -2.90212 -0.168071 
1 -0.0557782 -0.493062 -3.19667 
2 -3.50123 -2.58041 -1.23015 
1 -2.12487 -2.49391 -3.51193 
1 -2.10717 -0.0980481 -1.88291 
2 0.189484 -2.65504 -1.54566 
1 0.303217 -2.46915 -3.21887 
1 0.322845 -3.52242 -3.25096 
1 0.371811 -0.501128 -1.84573 
2 0.410169 -3.01043 -2.51376 
1 0.484147 -1.41988 -3.26952 
1 0.735715 -3.00331 -0.96567 
1 0.813811 -2.21279 -0.140781 
1 0.853813 -1.44373 -2.09339 
1 0.853344 -1.92529 -1.1491 
2 -3.06856 -3.68679 -1.05972 
2 0.887155 -2.12011 -2.67542 
1 0.896453 -0.510641 -2.73272 
1 0.985202 -2.64383 -1.96636 
1 1.12769 -0.615957 -1.137 
1 1.12877 -1.19782 -0.244332 
1 1.22226 -0.080742 -0.135812 
2 -0.214149 -1.93108 -3.66814 
1 1.24059 -2.88612 -3.0258 
2 1.26551 -1.29473 -2.83313 
1 -0.477308 -2.99833 -3.69516 
2 1.29729 -0.672074 -1.97343 
1 1.40263 -1.91268 -3.41762 
1 -3.68994 -1.13053 -1.54497 
2 1.43159 -2.70627 -0.492863 
1 -3.13852 -2.21314 -0.0162157 
1 0.95355 -3.72473 -2.37493 
1 1.47686 -0.825784 -3.5272 
1 1.4825 -3.59863 -0.457669 
2 1.60256 -2.13016 -1.56509 
1 1.75196 -1.9255 -2.40922 
1 1.77341 -2.93205 -1.26122 
1 1.84062 -1.27788 -1.55425 
1 1.83235 -1.93225 -0.697439 
1 -2.53661 -1.20373 1.26066 
1 -1.83108 -2.3026 1.5621 
1 -0.834059 -2.11727 1.10079 
1 -1.67802 -1.54184 0.742122 
2 0.0430657 -2.11698 1.23004 
2 -2.12334 -0.748655 0.623972 
1 -1.59836 -0.643008 1.34281 
1 -3.5968 -2.32477 0.930616 
2 -1.27665 -1.45726 1.49292 
1 -1.21323 -3.12546 1.10698 
2 -2.86325 -1.95148 1.57766 
2 -1.61426 -2.42421 0.702007 
1 -2.50276 -2.17697 0.778908 
1 -3.0916 -0.696424 0.433201 
1 -0.407493 -3.48974 0.506211 
2 -3.12748 -1.56708 0.700255 
1 -0.68763 -1.05264 0.870899 
1 -2.82987 -2.84741 1.47825 
1 -3.22744 -0.467091 1.52435 
1 -0.184982 -2.94518 1.38553 
1 0.0147654 -1.3292 1.60921 
1 -0.529003 -0.138915 0.344468 
2 -0.707002 -3.65677 1.60256 
1 0.0801713 -0.326961 1.28268 
1 -1.39502 -0.756559 0.0911759 
1 -2.09397 -3.16778 0.519672 
1 -0.911834 -1.75113 0.0713175 
1 -2.41007 -0.0408009 1.08563 
2 -2.0215 -3.15752 1.43606 
1 -3.1592 -3.19746 0.486453 
1 -1.10858 -2.83766 0.0901636 
1 -0.160402 -2.42905 0.332075 
1 -3.67071 -1.39777 1.39663 
1 0.400467 -0.595764 0.279483 
2 0.391589 -3.43092 0.912285 
1 0.51372 -3.19424 0.0481538 
1 0.410452 -1.57203 0.651403 
1 0.712421 -2.56033 0.88265 
1 0.990509 -1.83253 1.57255 
1 1.03792 -0.861407 1.13285 
1 1.0279 -3.28822 1.50623 
2 -3.42667 -3.65879 1.17872 
2 1.31186 -0.152354 0.746614 
1 -2.40085 -1.3216 0.0156184 
1 -2.256 -0.107177 0.0358483 
1 1.55245 -2.88212 0.363633 
1 1.53499 -1.82239 0.551431 
2 1.77109 -3.38292 1.02898 
1 1.8657 -0.761265 0.42669 
1 -3.30834 1.09079 -3.47546 
1 -3.49332 0.45727 -1.45575 
1 -3.39792 1.80416 -2.74147 
1 -3.08068 1.62112 -0.652121 
1 -3.17031 0.123451 -0.383803 
1 -3.0046 1.38024 -1.7826 
1 -2.88176 0.437911 -2.39629 
1 -2.6051 0.256781 -3.44368 
1 -2.58468 0.77001 -0.945071 
1 -2.42993 1.36455 -2.76451 
1 -2.01814 0.954109 -1.80155 
1 -1.87157 1.04514 -3.63752 
1 -1.87638 0.874238 -0.11339 
2 -1.75867 1.17405 -0.934932 
1 -1.78709 0.479892 -2.72894 
1 -1.67062 0.290488 -0.984007 
2 -1.42623 0.083861 -0.16853 
2 -1.26753 1.01423 -2.26596 
1 -1.15193 1.73875 -0.534974 
1 -1.09309 1.46818 -2.96525 
1 -1.07444 1.32309 -1.4779 
1 -1.07907 0.268897 -1.86129 
1 -3.65492 0.139473 -3.14722 
1 -0.845403 0.738342 -0.19962 
2 -0.84681 0.597105 -1.05792 
1 -0.715873 0.32856 -2.86061 
2 -0.436274 1.53456 -0.0488493 
1 -0.368202 1.09183 -2.20935 
2 -0.315398 1.13331 -3.11848 
1 -0.198475 1.22172 -0.896695 
1 -0.114245 0.314308 -1.43873 
1 0.143726 0.543042 -3.54579 
1 0.151577 0.441606 -0.233861 
1 0.322599 0.366834 -2.51426 
2 0.425776 1.27658 -2.55926 
1 0.626883 1.12321 -1.71734 
1 0.823351 1.4355 -0.6593 
1 0.85966 0.420975 -0.972513 
1 1.07731 0.120826 -3.58613 
1 1.16956 0.997339 -2.91057 
1 1.20006 0.21353 -1.92509 
2 1.65784 0.0690882 -0.93537 
1 1.71842 0.8442 -0.447574 
1 1.75723 1.1967 -1.91402 
1 1.78939 1.82664 -0.92131 
1 1.81386 0.161463 -2.76223 
1 1.89541 1.83657 -2.888 
1 -3.41702 0.55076 1.1889 
1 -2.9437 1.49407 1.19473 
1 -2.89427 0.998243 0.20104 
2 -2.99885 0.177187 0.487066 
2 -2.63634 0.660952 1.55671 
1 -2.09551 0.961783 0.928176 
1 -1.79469 0.469124 1.82221 
1 -1.6766 1.52667 1.78094 
1 -1.43272 0.209511 0.691619 
2 -1.25216 0.889497 1.23327 
1 -1.16386 1.42209 0.512385 
1 -0.841893 0.0870374 1.58126 
1 -0.40201 0.776469 0.86097 
1 0.0529217 1.6284 1.32652 
1 0.213507 0.62888 1.8017 
1 0.364732 1.36949 0.303695 
1 0.609939 0.374143 0.698554 
1 0.996051 1.18453 1.23448 
2 0.969121 0.786762 -0.00533319 
1 1.13757 0.141882 1.60131 
1 1.45488 1.55825 0.286014 
1 1.68772 0.604962 0.614616 
1 1.83943 -2.53043 1.36054 
1 1.9357 -0.839573 -2.53079 
1 1.95622 0.886979 1.69486 
1 1.96357 -2.9867 -2.2874 
1 1.9654 -1.32753 1.38108 
1 1.99375 0.679761 -3.64805 
1 2.02048 -0.701498 -0.631936 
2 2.07857 -0.00672931 -0.00788966 
1 2.08722 -0.137558 1.24555 
1 2.12327 -0.228651 -1.65414 
1 2.29733 -2.41937 -3.15765 
2 2.58413 -3.02346 -1.60279 
1 3.56895 -3.60176 -1.42726 
1 3.13216 -2.74484 -0.977598 
1 3.2637 -2.81296 -3.06269 
1 3.67452 -1.86902 -0.754629 
1 3.19514 -0.270207 -1.28481 
1 3.13939 -3.43598 -0.122955 
1 2.84004 -0.025351 -2.59532 
2 2.72231 -2.54545 -2.39989 
1 3.76711 -0.288373 -2.18829 
1 2.84436 -0.502517 -0.0375605 
2 3.33937 -1.88988 -1.58391 
1 2.8277 -1.28372 -0.998986 
1 3.23532 -1.89131 -3.57758 
2 2.72061 -2.07079 -0.628644 
1 3.7606 -0.761334 -0.528356 
1 2.52318 -3.66007 -0.998286 
1 3.34346 -0.888467 -3.11381 
1 3.4792 -2.67845 -1.96672 
1 2.3037 -2.81694 -0.329746 
1 2.86579 -3.48692 -2.27628 
1 3.23411 -1.82007 -2.5115 
1 2.29862 -3.468 -3.30483 
1 2.84765 -0.975256 -2.03674 
1 2.47521 -0.333665 -3.57463 
1 2.49884 -2.14567 -1.62239 
1 2.37864 -1.36429 -3.29854 
2 2.80094 -0.0820395 0.760721 
2 2.53055 -3.2099 1.72625 
2 2.27238 -2.33967 0.430195 
1 2.58361 -3.0701 0.829167 
1 3.24917 -0.201877 1.51533 
2 3.44844 -3.05563 0.626426 
2 3.64185 -0.692259 0.888309 
2 2.52547 -0.657168 1.77173 
1 3.40874 -3.12137 1.51653 
1 2.81256 -0.950039 0.940683 
1 2.49627 -1.55646 0.06119 
1 3.19226 -2.39362 0.0868336 
1 2.82118 -2.03762 1.0763 
1 3.54095 -1.41107 0.336186 
1 3.24184 1.63175 -3.5098 
2 3.57234 1.53371 -0.363807 
1 2.49199 0.266443 -0.762279 
1 3.53832 1.36504 -1.2408 
2 2.22869 1.06007 -1.14127 
1 2.69505 1.4512 -0.47195 
1 2.7868 0.671188 -1.71765 
1 3.4347 0.655733 -0.491525 
1 2.55831 1.00796 -2.76161 
1 2.64789 1.75324 -1.54089 
1 3.59073 0.914083 -2.39863 
1 3.0535 0.622195 -3.70525 
1 3.59461 0.0512955 0.415229 
1 2.53254 1.56003 0.640486 
1 2.72291 1.6953 1.70278 
1 2.92826 0.741477 1.26081 
1 2.66423 0.594417 0.228452 
1 3.56121 1.19651 0.469534 
1 -3.56461 3.33538 -0.528107 
2 -3.40445 2.02324 -3.66372 
2 -3.33268 3.28074 -2.92384 
1 -3.14022 3.03478 -1.48936 
2 -3.04849 2.1668 -1.32467 
1 -2.83295 2.60256 -3.15982 
1 -2.75698 2.6476 -0.585926 
1 -2.62906 3.3625 -2.3785 
1 -2.63066 2.32221 -2.12156 
1 -2.54186 3.67766 -0.291797 
2 -2.3077 2.75742 -1.36935 
1 -2.17536 3.63326 -1.35594 
1 -2.16852 1.89791 -1.22448 
1 -2.13989 1.89599 -0.158466 
1 -1.86144 2.19256 -3.16019 
1 -1.73516 3.30489 -2.98123 
1 -1.69689 2.78864 -0.703939 
1 -1.69366 2.92564 -1.9794 
1 -1.64962 1.87304 -2.16331 
2 -1.2949 2.79166 -3.52194 
1 -1.07463 3.56341 -1.12719 
1 -0.960205 2.3982 -1.43841 
1 -0.969503 2.52221 -2.70744 
2 -2.50302 3.60534 -3.2907 
2 -0.824044 2.55684 -0.590381 
2 -0.760484 1.86755 -2.16366 
1 -0.610882 3.42191 -3.12167 
1 -0.579501 3.25418 -2.04866 
1 -0.48588 2.50344 -3.68611 
1 -0.396472 3.11723 -0.0958817 
1 -0.0575808 3.0531 -1.1379 
1 -0.0162427 1.98152 -1.67679 
1 -0.0645801 1.95582 -2.81714 
1 0.0147043 2.18602 -0.531365 
2 0.100968 3.53968 -2.54976 
1 0.419468 2.8669 -2.10699 
1 0.411082 2.90223 -3.17313 
1 0.625213 3.2979 -0.298984 
1 0.93135 2.38254 -1.28882 
1 0.927182 1.95334 -3.3819 
1 0.962943 1.95212 -2.29885 
1 1.00666 3.46208 -1.2848 
1 1.09988 2.38888 -0.225075 
2 1.26628 2.9639 -1.93549 
1 1.38393 3.60962 -3.42911 
1 1.44913 2.80955 -2.77099 
2 1.6116 3.08174 -0.0251169 
2 1.85753 3.66128 -2.67009 
1 1.90827 2.38749 -1.89358 
1 1.89232 2.91163 -0.886071 
1 -3.57317 3.04901 1.56934 
1 -3.21226 3.19964 0.47355 
1 -3.1297 2.09425 0.301711 
1 -2.76421 2.56798 1.1917 
1 -2.47314 3.61008 1.23792 
2 -2.40679 1.98158 1.71147 
1 -2.1518 2.96175 0.399634 
1 -1.98089 1.98751 0.863046 
1 -1.78167 2.64314 1.64008 
2 -1.63761 3.56394 0.892375 
1 -1.49544 3.6306 1.77538 
1 -1.22072 2.48271 0.234853 
1 -0.841575 3.16044 1.02793 
1 -1.33708 3.58093 0.0503119 
1 -0.924581 2.09472 1.27798 
1 -0.223105 2.24062 0.499523 
1 -0.045815 2.61939 1.71672 
1 0.200919 3.63663 1.83055 
1 0.261549 3.16987 0.807671 
1 0.827193 2.25686 0.834645 
1 1.05712 3.09322 1.54896 
1 1.20729 3.63252 0.584003 
1 1.76058 1.88669 1.28535 
1 1.79628 2.8347 0.839425 
1 1.9615 3.51633 -1.80464 
1 1.94913 3.63615 1.77622 
1 2.17192 2.33058 -0.0155208 
1 3.59552 3.15219 -2.24797 
1 2.89082 3.01467 -0.375991 
1 3.58425 2.61282 -3.17111 
1 2.57643 2.46762 -3.48556 
1 3.61505 2.34837 -0.831515 
1 2.52254 3.05264 -2.6026 
1 3.71588 2.19748 -1.85474 
1 3.35341 3.6108 -3.18607 
1 2.85223 2.85087 -1.49615 
1 2.91779 2.0258 -2.53687 
2 2.59851 2.28718 -0.817833 
1 2.97305 3.41906 1.79495 
1 3.63802 2.04064 1.19437 
1 2.27174 3.60852 0.262938 
1 3.31571 3.54972 0.794749 
1 2.80899 2.62253 0.958909 
2 2.46698 3.41556 1.09089 
1 3.27898 2.17912 0.145276 
1 2.25135 2.64573 1.84035 
1 -1.02085 -1.97284 2.14184 
1 -0.56833 -2.25372 3.03181 
1 -0.962857 -3.02727 2.19567 
1 -2.35914 -0.385501 2.18991 
1 -2.52672 -2.21188 2.38723 
1 -1.40653 -0.727474 2.9453 
2 -1.67537 -2.52584 2.40232 
1 -1.89404 -1.34591 2.13785 
1 -1.70267 -1.89305 3.04959 
1 -2.4529 -1.1348 3.14979 
1 -3.03069 -1.30109 2.2517 
1 -2.23648 -3.23073 2.31419 
1 -3.55109 -2.28194 2.00658 
1 -1.43955 -2.89527 3.17792 
2 -1.51888 -3.59034 2.63927 
2 -1.47098 -0.288289 2.16213 
2 -0.944225 -1.45815 2.83467 
1 -0.864454 -0.926724 2.05388 
1 -2.94686 -2.07663 3.42922 
2 -0.730085 -3.36395 3.01313 
1 -3.09268 -3.00505 2.90858 
2 -2.29945 -2.66201 3.10947 
1 -0.0736294 -1.30854 2.69028 
1 -2.2747 -3.52649 3.36235 
1 -3.01992 -0.231909 3.06056 
1 -0.178036 -0.208393 2.38544 
1 0.0370994 -3.15031 2.68698 
1 0.00819924 -2.22732 2.1269 
1 -0.517065 -0.164988 3.38327 
1 -3.27747 -3.56004 2.05786 
1 -0.596603 -1.18799 3.60096 
1 -3.63857 -1.27824 3.24427 
1 0.466546 -2.12983 3.27097 
1 0.517855 -0.690177 3.34623 
1 0.691822 -0.687694 2.11926 
1 0.86285 -3.13023 3.39011 
1 0.972869 -3.67918 2.46547 
2 1.00259 -1.42369 3.45572 
1 0.98321 -1.55487 2.5853 
1 0.942281 -2.61148 2.33197 
2 -2.23314 -0.512925 3.73284 
1 1.56799 -2.36514 3.14542 
1 1.78415 -0.145193 3.10778 
1 1.74067 -0.660375 2.17848 
1 1.83923 -1.28879 3.12145 
2 -3.53542 0.420336 3.45142 
1 -3.5006 1.56593 2.99652 
1 -3.21311 0.344006 2.20356 
1 -2.78585 0.813694 3.13556 
1 -2.56238 1.80345 3.57755 
1 -2.67132 1.2561 2.18158 
2 -2.37772 0.465077 2.45615 
1 -1.98656 0.113176 3.13935 
1 -1.80038 1.12678 2.77375 
1 -1.06478 0.364209 2.62584 
1 -0.861907 0.804263 3.66861 
1 -0.797483 1.48352 2.87635 
1 -0.719857 1.12059 1.88889 
1 -0.0460594 0.719173 2.89195 
1 0.0393318 1.57339 3.58806 
1 0.128186 1.62475 2.38917 
2 -0.825563 1.69954 3.72208 
1 0.841753 0.153613 2.74577 
1 1.02158 1.0653 3.39895 
1 1.08103 1.07813 2.30938 
2 1.63706 0.260845 2.31007 
1 1.86063 1.79794 2.37678 
1 1.96943 1.68338 3.47625 
1 1.9447 -1.89959 2.25106 
1 1.92545 -2.97201 2.35185 
1 2.09051 0.84852 2.79122 
2 3.59472 -1.58013 2.45248 
1 2.77704 -1.71185 2.95046 
2 2.20756 -1.95667 3.57158 
1 2.90401 -1.39301 1.95568 
1 2.65642 -0.69195 2.81041 
1 3.62873 -0.628638 2.40264 
2 3.59348 -3.01267 2.42015 
1 2.83562 -3.42401 2.58967 
2 2.97544 -1.07879 3.55712 
1 3.43369 -0.311692 3.4241 
1 3.49819 -3.27881 3.42406 
1 2.86162 -2.45794 2.13783 
1 3.58431 -2.32515 2.98034 
1 2.58195 -2.72043 3.32914 
1 3.66127 1.24026 1.96755 
1 2.90487 1.54828 2.82326 
2 2.77911 0.951022 2.16272 
2 2.62653 0.158513 3.12133 
1 3.35422 0.535472 2.74189 
1 2.51601 0.119765 2.1928 
1 1.83175 -3.73981 3.10717 
1 -3.2206 3.39343 3.67932 
1 -3.20263 2.15453 2.08683 
1 -3.02702 2.58674 3.04902 
2 -2.87659 3.56803 2.86395 
1 -2.61416 3.06241 2.17312 
1 -2.18532 2.12339 2.55789 
1 -2.16177 2.92701 3.5806 
1 -1.67462 3.04798 2.65724 
1 -1.44306 2.17917 3.32285 
1 -1.21464 3.53213 3.45866 
1 -0.968217 2.34146 2.30207 
2 -0.869061 2.82731 3.05243 
1 -0.665831 3.41592 2.42487 
1 -0.17233 3.48073 3.38477 
1 -0.035443 2.58423 2.8018 
2 0.367948 2.40986 3.56787 
2 0.624185 2.95682 2.32495 
1 0.779954 3.14465 3.25491 
1 0.94079 2.05685 2.99228 
1 0.919705 2.12069 1.91518 
1 1.50099 2.85288 2.52485 
1 1.62045 2.66946 3.62044 
1 2.42879 2.52083 2.90715 
1 3.71159 3.32125 2.70803 
1 2.85431 3.35254 3.39549 
1 3.42722 2.44062 3.27761 
1 3.25684 2.44789 2.21468 
2 2.392 3.29918 2.48123 
