ITEM: TIMESTEP
3
ITEM: NUMBER OF ATOMS
500
ITEM: BOX BOUNDS xy xz yz pp pp pp
-3.7345 3.74197 0.007469
-3.7345 3.7345 0
-3.7345 3.7345 0
ITEM: ATOMS type xu yu zu 
1 0.0207122 -2.18514 -2.24342 
1 -0.936154 -1.76979 -1.79354 
1 -0.531344 -1.5298 -2.85824 
1 -1.29866 -2.44452 -2.51326 
2 -1.7603 -1.87477 -3.02253 
1 -3.30679 -1.21621 -2.53989 
1 -1.16971 -2.31189 -0.826651 
1 -3.30123 -2.27453 -2.86866 
1 -0.717573 -2.86573 -1.59912 
1 -1.50564 -1.21179 -2.52826 
1 -2.30045 -2.1013 -2.35845 
1 -2.86095 -1.39582 -0.946152 
1 -2.56018 -1.54461 -3.22408 
1 -3.13502 -0.713363 -3.48187 
1 -2.34677 -3.14249 -2.66526 
1 -0.123201 -2.36159 -0.786737 
1 -3.19606 -2.00224 -1.79458 
1 -2.43304 -1.12982 -1.9245 
1 -2.64972 -2.44081 -0.937967 
1 -1.85801 -2.7286 -1.61061 
1 -0.609862 -0.601805 -2.2987 
1 -0.892522 -1.25154 -0.83458 
1 -2.26799 -0.549527 -2.85011 
2 -1.64327 -1.4591 -0.396027 
1 -1.87945 -1.69066 -1.23806 
1 -2.94963 -3.08868 -1.71622 
2 -0.53513 -2.40407 -2.9401 
1 -1.3604 -0.73338 -1.59866 
1 -3.46452 -3.38481 -2.58059 
2 -0.943046 -0.791429 -3.12735 
1 -2.01106 -0.71881 -0.787081 
1 -0.463961 -3.17517 -2.58294 
1 -0.0240891 -1.39006 -1.43231 
1 -0.848266 -0.212024 -0.708207 
2 -0.46854 -0.594764 -1.41306 
1 -2.95354 -0.397905 -1.29242 
1 -1.40974 -3.21018 -3.23608 
2 -0.554096 -0.873715 -0.0996518 
2 0.145831 -1.05001 -2.51128 
1 0.140077 -0.503723 -0.740714 
2 -1.45628 -0.295837 -2.48027 
2 -2.81461 -0.65049 -0.433031 
1 -1.10819 -2.12921 -3.5419 
1 0.0500274 -1.45864 -0.317411 
2 -3.46747 -1.54553 -3.37834 
2 -3.27926 -1.38935 -0.192583 
1 -1.64617 -1.18926 -3.58688 
1 -1.8426 -3.16018 -0.632919 
1 -3.41985 -3.07997 -0.539319 
1 -0.31945 -3.40455 -0.641929 
2 -2.88872 -0.448603 -2.22302 
1 -1.44677 -3.51611 -2.17877 
1 -1.9685 -2.23996 -0.121136 
1 -3.02495 -3.09169 -3.50352 
1 -1.4589 -0.164243 -3.47921 
2 -3.64897 -2.51609 -3.67317 
1 0.127469 -3.4965 -1.75575 
2 -2.59806 -2.89776 -0.171332 
1 -0.0849128 -0.488018 -3.19334 
2 -3.51288 -2.58244 -1.23328 
1 -2.13121 -2.48968 -3.51994 
1 -2.1374 -0.0991138 -1.89063 
2 0.186873 -2.64575 -1.54265 
1 0.288148 -2.46631 -3.21879 
1 0.31803 -3.52064 -3.25196 
1 0.342248 -0.493341 -1.83884 
2 0.404155 -3.00992 -2.51721 
1 0.459452 -1.41436 -3.26872 
1 0.722873 -3.00726 -0.957778 
1 0.796066 -2.2282 -0.146239 
1 0.829644 -1.43393 -2.09268 
1 0.844792 -1.92952 -1.15266 
2 -3.07264 -3.67969 -1.06222 
2 0.864832 -2.1177 -2.66994 
1 0.865502 -0.508217 -2.73066 
1 0.973631 -2.64874 -1.96464 
1 1.09205 -0.631557 -1.13641 
1 1.10044 -1.20951 -0.249729 
1 1.17538 -0.0844827 -0.154004 
2 -0.225818 -1.9232 -3.66813 
1 1.22744 -2.87727 -3.02578 
2 1.23753 -1.29362 -2.83698 
1 -0.486132 -2.99751 -3.69757 
2 1.27147 -0.660659 -1.9706 
1 1.38169 -1.90618 -3.42707 
1 -3.71296 -1.12881 -1.54269 
2 1.42467 -2.71269 -0.489765 
1 -3.14696 -2.20851 -0.0212186 
1 0.956865 -3.72364 -2.37675 
1 1.453 -0.815022 -3.52336 
1 1.47486 -3.60377 -0.450436 
2 1.59335 -2.14264 -1.56278 
1 1.72042 -1.93006 -2.4098 
1 1.76051 -2.94363 -1.25858 
1 1.81297 -1.28657 -1.55289 
1 1.82096 -1.93846 -0.695522 
1 -2.55346 -1.20042 1.25975 
1 -1.83752 -2.2985 1.55892 
1 -0.840499 -2.10995 1.09751 
1 -1.69343 -1.53746 0.740903 
2 0.0390095 -2.1145 1.23044 
2 -2.14095 -0.748257 0.621616 
1 -1.60822 -0.639997 1.3345 
1 -3.59889 -2.3257 0.926963 
2 -1.28708 -1.45468 1.4894 
1 -1.22086 -3.1163 1.10803 
2 -2.87216 -1.95325 1.57326 
2 -1.61921 -2.41852 0.696757 
1 -2.51162 -2.18139 0.77666 
1 -3.12009 -0.694406 0.435331 
1 -0.41532 -3.49021 0.522386 
2 -3.13556 -1.56811 0.694103 
1 -0.691439 -1.04967 0.865929 
1 -2.83901 -2.85085 1.47933 
1 -3.251 -0.465487 1.52691 
1 -0.196914 -2.93563 1.3909 
1 0.0148743 -1.32719 1.60813 
1 -0.533508 -0.126813 0.347515 
2 -0.711172 -3.65103 1.59834 
1 0.0604531 -0.323874 1.30188 
1 -1.40936 -0.745269 0.0981371 
1 -2.0937 -3.16581 0.511105 
1 -0.931378 -1.75066 0.0708332 
1 -2.43033 -0.0477997 1.08734 
2 -2.02857 -3.15387 1.43085 
1 -3.15879 -3.19861 0.484078 
1 -1.11272 -2.83712 0.08687 
1 -0.169359 -2.4259 0.329473 
1 -3.67881 -1.40227 1.39529 
1 0.391603 -0.605054 0.307914 
2 0.389311 -3.43951 0.939716 
1 0.499648 -3.21298 0.0568156 
1 0.428152 -1.5829 0.657109 
1 0.698903 -2.57535 0.880918 
1 0.983296 -1.85869 1.58014 
1 1.02887 -0.872084 1.17619 
1 1.04801 -3.27523 1.51811 
2 -3.42484 -3.66648 1.1734 
2 1.22665 -0.173503 0.727102 
1 -2.42739 -1.32273 0.0213955 
1 -2.28819 -0.103763 0.0406078 
1 1.54543 -2.88802 0.366718 
1 1.52133 -1.83111 0.535169 
2 1.78104 -3.38423 1.03102 
1 1.82116 -0.762634 0.421305 
1 -3.35683 1.08747 -3.48051 
1 -3.53616 0.451579 -1.45039 
1 -3.45167 1.78935 -2.73505 
1 -3.13622 1.61788 -0.653883 
1 -3.20923 0.119264 -0.372485 
1 -3.058 1.37803 -1.77974 
1 -2.92163 0.433962 -2.39396 
1 -2.64169 0.258132 -3.4465 
1 -2.63005 0.76906 -0.940341 
1 -2.4805 1.36362 -2.76518 
1 -2.07021 0.954063 -1.8036 
1 -1.91982 1.06276 -3.64241 
1 -1.91396 0.877178 -0.117031 
2 -1.81043 1.17918 -0.938555 
1 -1.82861 0.486551 -2.73609 
1 -1.71199 0.29507 -0.988994 
2 -1.46499 0.0891993 -0.175724 
2 -1.31794 1.01724 -2.26506 
1 -1.20122 1.74238 -0.537474 
1 -1.14665 1.4732 -2.962 
1 -1.12803 1.32884 -1.48117 
1 -1.11807 0.274712 -1.86318 
1 -3.68469 0.129709 -3.14948 
1 -0.880326 0.74109 -0.196638 
2 -0.892523 0.607273 -1.0576 
1 -0.756008 0.326813 -2.86117 
2 -0.480279 1.53908 -0.0563971 
1 -0.416138 1.09305 -2.20932 
2 -0.371037 1.13753 -3.11707 
1 -0.251777 1.23351 -0.906033 
1 -0.15937 0.312447 -1.4289 
1 0.103341 0.554924 -3.53635 
1 0.121681 0.460101 -0.258499 
1 0.277619 0.364634 -2.50722 
2 0.378812 1.27534 -2.57167 
1 0.576401 1.12413 -1.72592 
1 0.773303 1.41984 -0.666962 
1 0.826654 0.407927 -1.00084 
1 1.03316 0.123758 -3.59623 
1 1.13121 0.99036 -2.90696 
1 1.17933 0.226399 -1.95107 
2 1.62303 0.0586356 -0.94052 
1 1.67068 0.837311 -0.453881 
1 1.70629 1.21753 -1.9061 
1 1.73751 1.82737 -0.910711 
1 1.77921 0.14232 -2.7954 
1 1.84152 1.83651 -2.87953 
1 -3.45522 0.553106 1.19821 
1 -2.98453 1.49421 1.18938 
1 -2.93389 0.998048 0.199155 
2 -3.03193 0.179308 0.500081 
2 -2.66942 0.649587 1.55759 
1 -2.13556 0.956457 0.925142 
1 -1.82431 0.470521 1.82258 
1 -1.72726 1.52877 1.77572 
1 -1.45114 0.218725 0.684882 
2 -1.29291 0.901087 1.23098 
1 -1.21185 1.4301 0.505293 
1 -0.865402 0.0991807 1.58242 
1 -0.449105 0.797368 0.860729 
1 0.0135655 1.6404 1.32607 
1 0.162096 0.641209 1.80199 
1 0.322885 1.38024 0.298426 
1 0.5454 0.382956 0.689806 
1 0.950016 1.18566 1.22455 
2 0.92957 0.78915 0.000606886 
1 1.08027 0.145988 1.58905 
1 1.41763 1.5463 0.289128 
1 1.62652 0.5794 0.605987 
1 1.85092 -2.5177 1.3462 
1 2.27458 -2.42151 -3.14991 
2 2.56836 -3.03451 -1.6031 
1 3.56194 -3.60224 -1.42311 
1 3.11847 -2.7446 -0.984243 
1 3.24417 -2.8245 -3.07259 
1 3.65672 -1.86997 -0.757616 
1 3.15231 -0.274583 -1.28736 
1 3.13745 -3.43493 -0.125759 
1 2.80345 -0.0341804 -2.60067 
2 2.71308 -2.56481 -2.40311 
1 2.08743 -0.236501 -1.65503 
1 3.73183 -0.292269 -2.18873 
1 2.8047 -0.486352 -0.0373697 
1 1.99092 -0.706714 -0.636326 
2 3.32536 -1.89546 -1.58998 
1 2.80125 -1.29183 -1.00242 
1 3.20292 -1.90015 -3.58399 
2 2.70941 -2.07443 -0.622288 
1 3.72228 -0.763059 -0.526391 
1 2.51586 -3.66365 -0.988801 
1 1.90544 -0.846416 -2.5242 
1 1.94928 -2.99604 -2.28627 
1 3.31687 -0.897029 -3.11602 
1 3.47425 -2.68398 -1.9737 
1 2.29617 -2.82054 -0.326543 
1 2.85778 -3.49194 -2.279 
1 3.20946 -1.83005 -2.51821 
1 2.29977 -3.4714 -3.2963 
1 2.82219 -0.985946 -2.0403 
1 2.44889 -0.341491 -3.58958 
1 2.48419 -2.15323 -1.63496 
1 2.35304 -1.36539 -3.28916 
2 2.03101 -0.00719102 -0.0171925 
2 2.75914 -0.0695649 0.778333 
1 1.95719 -1.35518 1.36739 
2 2.53679 -3.21604 1.71993 
2 2.2649 -2.33938 0.432745 
1 2.58936 -3.06809 0.824544 
1 3.22156 -0.202831 1.52691 
2 3.4512 -3.05422 0.619953 
2 3.61763 -0.692449 0.89913 
2 2.49187 -0.661419 1.75576 
1 3.41367 -3.1219 1.51059 
1 2.78513 -0.937986 0.931596 
1 2.48057 -1.55168 0.061322 
1 2.02871 -0.150743 1.24416 
1 3.18473 -2.39287 0.0845914 
1 2.82499 -2.02914 1.06642 
1 3.52256 -1.41118 0.344555 
1 3.18705 1.62371 -3.5096 
2 3.51872 1.53473 -0.362411 
1 2.45361 0.271738 -0.766073 
1 3.48294 1.3566 -1.24138 
2 2.18344 1.06685 -1.13933 
1 2.64347 1.45075 -0.463233 
1 2.72624 0.67537 -1.7271 
1 3.39456 0.653921 -0.481567 
1 2.50327 0.996441 -2.77606 
1 2.59779 1.76577 -1.5281 
1 3.53977 0.894239 -2.40161 
1 1.96023 0.667151 -3.67333 
1 3.02334 0.609487 -3.7085 
1 3.55632 0.0505526 0.428438 
1 2.49289 1.55929 0.651794 
1 2.67063 1.6859 1.71746 
1 2.8873 0.736609 1.2664 
1 2.61328 0.594014 0.232836 
1 3.51876 1.19136 0.469438 
1 1.90486 0.879727 1.68376 
1 -3.62863 3.33447 -0.52804 
2 -3.46184 2.01805 -3.6536 
2 -3.39682 3.27514 -2.92249 
1 -3.20397 3.03576 -1.48474 
2 -3.10844 2.16698 -1.32335 
1 -2.89197 2.59794 -3.15507 
1 -2.81642 2.64689 -0.583826 
1 -2.69675 3.3659 -2.37596 
1 -2.69153 2.32429 -2.11884 
1 -2.61183 3.68072 -0.294835 
2 -2.37023 2.76046 -1.36709 
1 -2.24731 3.63852 -1.3589 
1 -2.2267 1.89992 -1.22667 
1 -2.19327 1.89449 -0.16313 
1 -1.91661 2.19352 -3.16127 
1 -1.80283 3.30413 -2.98085 
1 -1.75324 2.7869 -0.707947 
1 -1.75672 2.92988 -1.97662 
1 -1.70717 1.87737 -2.16315 
2 -1.35312 2.79605 -3.52018 
1 -1.14966 3.57462 -1.13309 
1 -1.01525 2.40359 -1.44338 
1 -1.02664 2.52672 -2.70369 
2 -2.56778 3.62112 -3.28542 
2 -0.874354 2.56198 -0.594706 
2 -0.815631 1.86742 -2.16592 
1 -0.677628 3.42642 -3.12503 
1 -0.648169 3.26809 -2.04889 
1 -0.543322 2.50832 -3.68254 
1 -0.454444 3.12217 -0.091379 
1 -0.129599 3.06665 -1.13423 
1 -0.0713696 1.9841 -1.67957 
1 -0.11982 1.95791 -2.81511 
1 -0.0298615 2.19444 -0.535908 
2 0.0331653 3.54338 -2.54956 
1 0.35155 2.87493 -2.09899 
1 0.353966 2.90416 -3.16568 
1 0.570836 3.27859 -0.296374 
1 0.874589 2.38197 -1.28634 
1 0.878024 1.95541 -3.38049 
1 0.901595 1.96094 -2.29979 
1 0.940579 3.46349 -1.28731 
1 1.04773 2.37048 -0.224105 
2 1.20092 2.96132 -1.9375 
1 1.31686 3.61612 -3.42599 
1 1.39469 2.8107 -2.77155 
2 1.54016 3.07641 -0.0100531 
2 1.79703 3.6456 -2.66582 
1 1.84627 2.3874 -1.88453 
1 1.82938 2.91116 -0.872704 
1 -3.63758 3.0318 1.55431 
1 -3.2729 3.19421 0.469897 
1 -3.18258 2.09021 0.300948 
1 -2.81327 2.56862 1.18679 
1 -2.53756 3.61213 1.22662 
2 -2.45496 1.9845 1.70835 
1 -2.21044 2.96204 0.390309 
1 -2.03182 1.98628 0.857772 
1 -1.82875 2.64073 1.63552 
2 -1.69879 3.57033 0.886326 
1 -1.56663 3.6339 1.77277 
1 -1.27584 2.48706 0.231682 
1 -0.909403 3.15665 1.03448 
1 -1.39901 3.58319 0.0424048 
1 -0.970187 2.0916 1.27876 
1 -0.277359 2.23899 0.493773 
1 -0.0998365 2.62455 1.72586 
1 0.134798 3.64677 1.81816 
1 0.194844 3.16574 0.808148 
1 0.784618 2.26423 0.830531 
1 0.990312 3.10174 1.55348 
1 1.13987 3.63047 0.596673 
1 1.71441 1.8892 1.28705 
1 1.74876 2.84774 0.861103 
1 3.53409 3.1573 -2.24154 
1 1.8977 3.50912 -1.80011 
1 2.83247 3.01489 -0.365729 
1 3.52593 2.59948 -3.1507 
1 2.52266 2.46252 -3.47961 
1 3.55258 2.34315 -0.830056 
1 2.46544 3.03584 -2.58977 
1 3.65698 2.19723 -1.85452 
1 3.28345 3.59438 -3.18859 
1 2.79332 2.85622 -1.48509 
1 2.86169 2.00431 -2.5327 
2 2.54067 2.28985 -0.802736 
1 2.92162 3.41856 1.80476 
1 3.58066 2.01902 1.1968 
1 2.20444 3.60961 0.264096 
1 1.89361 3.62405 1.7734 
1 2.11643 2.33402 0.0030129 
1 3.25798 3.5525 0.791208 
1 2.76299 2.62466 0.969425 
2 2.42284 3.42449 1.09139 
1 3.22765 2.17914 0.151206 
1 -1.02527 -1.96928 2.13854 
1 -0.57598 -2.24846 3.03184 
1 -0.971266 -3.02481 2.19548 
1 -2.37948 -0.385995 2.19104 
1 -2.53316 -2.20979 2.38348 
1 -1.42749 -0.721341 2.94061 
2 -1.68117 -2.52071 2.39942 
1 -1.9035 -1.3422 2.13316 
1 -1.71243 -1.89062 3.04548 
1 -2.47113 -1.13893 3.14792 
1 -3.04548 -1.30361 2.25119 
1 -2.2384 -3.22658 2.30898 
1 -3.55677 -2.28382 2.00614 
1 -1.44684 -2.89316 3.17492 
2 -1.52457 -3.59001 2.63788 
2 -1.48932 -0.287691 2.15517 
2 -0.959664 -1.45114 2.83038 
1 -0.874662 -0.922595 2.04773 
1 -2.96128 -2.08387 3.42199 
2 -0.736783 -3.36373 3.01157 
1 -3.09929 -3.01062 2.89412 
2 -2.30881 -2.66552 3.10359 
1 -0.0888498 -1.30778 2.69029 
1 -2.27986 -3.53058 3.35399 
1 -3.03984 -0.23531 3.06276 
1 -0.209766 -0.196804 2.39753 
1 0.0274596 -3.15018 2.68134 
1 0.00698833 -2.2224 2.13007 
1 -0.553485 -0.155722 3.39285 
1 -3.28046 -3.57702 2.04977 
1 -0.617187 -1.18365 3.60008 
1 -3.66155 -1.29232 3.24346 
1 0.461914 -2.1227 3.27595 
1 0.482762 -0.680457 3.3476 
1 0.665106 -0.673593 2.14993 
1 0.850866 -3.12773 3.39012 
1 0.964826 -3.68236 2.46752 
2 0.97874 -1.40379 3.45671 
1 0.976871 -1.54939 2.5869 
1 0.933799 -2.61239 2.35988 
2 -2.26653 -0.511348 3.7301 
1 1.58912 -2.38852 3.15668 
1 1.74052 -0.167196 3.09564 
1 1.7155 -0.700316 2.17284 
1 1.83052 -1.30357 3.14302 
1 1.82811 -3.71061 3.10728 
2 -3.56818 0.413058 3.44495 
1 -3.55137 1.56992 2.99864 
1 -3.24821 0.338772 2.21041 
1 -2.82431 0.818393 3.13298 
1 -2.62052 1.81418 3.57319 
1 -2.71452 1.25205 2.17503 
2 -2.41087 0.46509 2.45685 
1 -2.01507 0.119167 3.14175 
1 -1.84071 1.13012 2.76789 
1 -1.09791 0.371347 2.62686 
1 -0.91013 0.808397 3.67289 
1 -0.842398 1.48982 2.88193 
1 -0.767326 1.13629 1.89031 
1 -0.0861954 0.731998 2.90013 
1 -0.0139566 1.5799 3.59613 
1 0.0781098 1.63492 2.38837 
2 -0.880737 1.70415 3.7259 
1 0.804295 0.174212 2.75852 
1 0.972263 1.07526 3.39861 
1 1.02538 1.0879 2.29936 
2 1.58802 0.229176 2.29518 
1 1.80389 1.79957 2.38051 
2 3.57714 -1.58813 2.44725 
1 1.93294 -1.89755 2.25599 
1 2.7693 -1.71476 2.93545 
2 2.22575 -1.96253 3.57644 
1 1.91669 -2.96994 2.32654 
1 2.89193 -1.38376 1.94627 
1 2.63144 -0.691613 2.80859 
1 3.61002 -0.638541 2.40603 
2 3.59196 -3.02219 2.40826 
1 2.82669 -3.41279 2.58994 
2 2.94459 -1.08779 3.55457 
1 3.41292 -0.325177 3.42397 
1 3.50236 -3.29177 3.42477 
1 2.85361 -2.45349 2.11838 
1 3.56906 -2.33898 2.97613 
1 2.59526 -2.72916 3.35171 
1 1.91192 1.68099 3.48022 
1 3.61362 1.23221 1.97767 
1 2.85012 1.52876 2.83861 
1 2.01932 0.840781 2.7715 
2 2.73087 0.939352 2.16885 
2 2.56896 0.166723 3.1163 
1 3.30821 0.513396 2.73598 
1 2.46462 0.110477 2.18485 
1 -3.27756 3.38956 3.68267 
1 -3.25015 2.14833 2.07889 
1 -3.08558 2.59628 3.0336 
2 -2.94736 3.55884 2.85664 
1 -2.66387 3.06226 2.16155 
1 -2.23936 2.12205 2.55637 
1 -2.22363 2.92441 3.57977 
1 -1.73177 3.04517 2.65636 
1 -1.49742 2.18179 3.32297 
1 -1.28167 3.53599 3.4583 
1 -1.02264 2.34152 2.3031 
2 -0.92645 2.83373 3.05391 
1 -0.729364 3.41898 2.41917 
1 -0.236272 3.48527 3.38047 
1 -0.0945765 2.58711 2.8084 
2 0.311932 2.41212 3.57456 
2 0.568551 2.95359 2.33157 
1 0.720199 3.1449 3.26237 
1 0.88612 2.06739 2.99301 
1 0.871765 2.1274 1.91357 
1 1.45255 2.86299 2.52905 
1 1.57188 2.67805 3.61989 
1 2.37965 2.50915 2.91094 
1 3.63594 3.32642 2.71375 
1 2.20837 2.63967 1.85243 
1 2.77315 3.35504 3.39184 
1 3.37536 2.44656 3.29316 
1 3.21271 2.43641 2.22646 
2 2.32806 3.29912 2.49479 
