ITEM: TIMESTEP
170
ITEM: NUMBER OF ATOMS
500
ITEM: BOX BOUNDS xy xz yz pp pp pp
-3.7345 3.77931 0.044814
-3.7345 3.7345 0
-3.7345 3.7345 0
ITEM: ATOMS type xu yu zu 
1 3.22157 -1.8951 -3.58108 
1 -1.63386 -1.18829 -3.5846 
1 -2.95402 -2.07975 3.42679 
1 2.81729 -1.287 -0.998625 
1 0.917303 2.06114 2.99278 
1 3.23751 2.44287 2.21999 
1 2.6447 -0.692973 2.80799 
1 -0.60939 3.25901 -2.04842 
1 2.76103 0.672979 -1.72058 
1 -3.10398 1.61947 -0.653278 
1 0.856752 -3.12976 3.38996 
1 0.730831 -3.00427 -0.962707 
1 -1.24474 2.48398 0.234084 
1 -1.02378 -1.97177 2.14035 
1 -2.62263 0.256982 -3.44465 
1 -2.54498 -1.20243 1.25986 
1 -1.44267 -2.8938 3.17703 
1 -0.734366 0.328617 -2.86114 
1 1.03329 -0.866048 1.15218 
1 0.358335 -0.498304 -1.84291 
1 1.35438 3.61208 -3.4277 
1 3.58901 2.34658 -0.830243 
1 -2.00254 1.98702 0.861411 
1 -1.40298 -0.75213 0.0946739 
1 3.6901 2.19832 -1.85434 
1 2.86535 3.01482 -0.371909 
1 1.11391 0.14261 1.59756 
1 1.57593 -2.37581 3.14995 
1 -0.639954 3.42388 -3.12249 
1 3.17651 -0.27174 -1.28681 
1 0.805621 -2.21876 -0.143416 
1 -2.11236 0.959868 0.926538 
1 -0.0178521 -1.39029 -1.44183 
1 1.0588 1.08109 2.30632 
1 1.87195 1.83548 -2.88397 
1 1.84591 -0.76334 0.424208 
1 2.48875 -1.55566 0.0622913 
1 1.73836 -1.92774 -2.4095 
1 -3.22713 0.342053 2.20546 
1 -0.870864 3.15933 1.03027 
1 -1.83455 -2.30205 1.56115 
1 -3.18858 -2.00512 -1.79534 
1 -2.6897 1.25489 2.17896 
1 -3.32891 1.09008 -3.47787 
1 2.70079 1.69143 1.70843 
1 0.85054 -1.9268 -1.15068 
1 0.501217 -0.686126 3.347 
1 -0.869954 -0.925655 2.05132 
1 3.75116 -0.289413 -2.18976 
1 3.23606 -0.202913 1.51981 
1 -0.852915 0.0912002 1.58146 
1 0.508254 -3.20121 0.0517025 
1 -1.17474 1.73891 -0.535375 
1 -0.389512 1.09258 -2.20958 
1 -2.24737 -0.548639 -2.84887 
1 3.42245 -0.316245 3.42296 
1 -0.927824 -1.77832 -1.79231 
1 3.21855 1.62876 -3.51022 
1 0.0321725 -3.15053 2.68447 
1 -1.29296 -2.44774 -2.5131 
1 -3.24583 3.39179 3.68065 
1 -1.09646 0.271671 -1.8621 
1 -3.2938 -1.21493 -2.53945 
1 1.93353 3.51338 -1.80227 
1 -0.992302 2.34282 2.30237 
1 1.8648 2.91197 -0.880073 
1 0.898561 2.1231 1.91499 
1 -2.19322 1.89882 -1.22471 
1 0.999349 1.06947 3.39904 
1 1.93443 0.884298 1.69046 
1 2.89386 2.01362 -2.53507 
1 -0.164769 -2.42697 0.329948 
1 -0.967255 -3.02637 2.19557 
1 3.66838 -1.87067 -0.757726 
1 1.74026 1.8881 1.28632 
1 1.69803 0.842011 -0.449724 
1 3.29046 3.5508 0.793827 
1 -2.63655 3.06228 2.16785 
1 2.49265 0.115548 2.18863 
1 1.18942 0.218372 -1.93511 
1 -2.16377 1.89566 -0.159434 
1 0.138561 0.447742 -0.242508 
1 -0.193777 -0.203678 2.3906 
1 -1.36467 3.58195 0.0478127 
1 -1.8029 2.64239 1.63818 
1 3.32228 3.60348 -3.18765 
1 -1.89408 1.05067 -3.63886 
1 2.23258 2.6426 1.84612 
1 -0.534631 -0.16115 3.38738 
1 -0.0879345 3.05761 -1.13663 
1 -0.985157 2.40044 -1.43953 
1 -1.2168 -3.12313 1.10675 
1 3.50006 -3.28457 3.42369 
1 0.843115 -1.43972 -2.09336 
1 3.33093 -0.891645 -3.1154 
1 3.57752 0.0516864 0.420162 
1 -3.60111 3.04203 1.56373 
1 0.232353 3.16834 0.807279 
1 -0.0614348 2.58523 2.80443 
1 -0.088874 1.9571 -2.81606 
1 -2.18954 2.92659 3.58133 
1 -3.59275 3.33588 -0.529047 
1 2.24199 3.60886 0.263224 
1 -2.85985 2.59977 -3.15787 
1 -2.50709 -2.17889 0.778341 
1 -1.72144 2.92758 -1.97866 
1 2.83615 -0.981644 -2.03621 
1 2.94978 3.41826 1.79938 
1 -1.16495 -2.31428 -0.823782 
1 1.8278 -1.93485 -0.696655 
1 2.30056 -2.81834 -0.32743 
1 1.59859 2.67262 3.6203 
1 3.22195 -1.82438 -2.51586 
1 2.52129 -3.66131 -0.994683 
1 2.85726 -2.45664 2.12952 
1 2.82293 -2.03488 1.07169 
1 0.753406 3.14454 3.25788 
1 -0.51121 2.5058 -3.6846 
1 -0.739894 1.12592 1.88996 
1 -3.02224 -3.09672 -3.49632 
1 -3.6993 -1.12884 -1.54398 
1 -1.81853 1.12849 2.77247 
1 -3.67481 -1.39915 1.39483 
1 2.29881 -3.46928 -3.30074 
1 -0.190944 -2.94145 1.38713 
1 0.705432 -2.56638 0.881911 
1 0.345937 1.37341 0.301991 
1 -1.11726 1.4705 -2.96432 
1 2.36762 -1.36443 -3.29614 
1 -0.460183 -3.17716 -2.58159 
1 -1.49069 -1.21736 -2.52742 
1 -2.83416 -2.84871 1.47885 
1 -2.41924 -1.12916 -1.92716 
1 2.14736 2.33283 -0.00718182 
1 0.0143424 -1.3283 1.60908 
1 0.583639 0.378003 0.696165 
1 3.51472 1.3624 -1.24116 
1 1.92325 -0.843894 -2.52785 
1 -2.90023 0.436697 -2.39614 
1 -2.96125 1.49395 1.19237 
1 -3.23854 -0.466146 1.5246 
1 3.56747 -3.60046 -1.42643 
1 0.808 2.25976 0.833353 
1 1.3941 -1.90917 -3.42196 
1 -2.64461 -2.44224 -0.93573 
1 -2.78321 2.64733 -0.584771 
1 2.58595 -3.06969 0.826899 
1 -1.67463 1.87502 -2.16288 
1 1.23532 -2.88203 -3.02672 
1 2.51458 1.55978 0.645184 
1 1.92384 3.63015 1.77445 
1 0.416979 -1.57625 0.654229 
1 -0.531769 -0.135371 0.346584 
1 -3.15402 2.09216 0.300974 
1 -2.65907 3.3637 -2.37817 
1 0.955625 -3.72376 -2.37549 
1 -0.246585 2.24028 0.497742 
1 -3.55477 -2.28207 2.00585 
1 1.93895 -1.89876 2.25337 
1 -1.72185 2.7883 -0.704448 
1 3.33422 0.52524 2.73637 
1 3.61346 2.03192 1.19509 
1 -2.65713 2.32316 -2.12006 
1 1.76537 -0.153602 3.10246 
1 -3.18795 0.121984 -0.379376 
1 -0.0408249 1.98279 -1.67729 
1 3.25537 2.17897 0.147707 
1 3.67837 3.32371 2.71016 
1 1.03633 -3.28211 1.51161 
1 0.390313 2.86986 -2.10418 
1 1.42528 2.80965 -2.77102 
1 -0.00494239 2.18898 -0.532549 
1 3.55771 2.60657 -3.16078 
1 -2.60452 0.768313 -0.943532 
1 0.976465 1.18519 1.23156 
1 -3.27861 -3.5669 2.05444 
1 -3.22313 2.15221 2.08312 
1 1.9209 -2.97138 2.33982 
1 2.86233 -3.48892 -2.27817 
1 3.41655 0.655736 -0.487968 
1 3.25453 -2.81811 -3.06778 
1 -2.27631 -3.52816 3.35775 
1 -2.20844 2.12326 2.5567 
1 2.78873 2.6239 0.96381 
1 1.76881 -2.93663 -1.25988 
1 -1.44131 0.212787 0.688672 
1 3.64126 1.23734 1.97132 
1 -1.11076 -2.83726 0.0889015 
1 -3.23904 3.19731 0.471152 
1 -2.91153 0.997949 0.200252 
1 0.00632957 -2.22567 2.12749 
1 1.11323 -0.619815 -1.13763 
1 2.91053 0.739199 1.26263 
1 -2.36875 -0.385549 2.19038 
1 1.43782 1.5539 0.287553 
1 -1.89928 -1.34473 2.1353 
1 1.94514 1.68224 3.47802 
1 3.5325 -1.41097 0.338407 
1 0.8014 1.43 -0.662006 
1 -2.46252 -1.13662 3.14924 
1 3.40465 2.44435 3.28504 
1 -0.838661 -2.1156 1.09886 
1 -1.85383 -2.73245 -1.6102 
1 -3.03057 -0.233126 3.06171 
1 0.473386 -1.41772 -3.26882 
1 3.12598 -2.74486 -0.980337 
1 0.845004 0.416998 -0.983092 
1 -2.41991 -0.043044 1.08613 
1 -3.16713 3.03609 -1.48729 
1 0.124323 0.547736 -3.54211 
1 2.06314 0.845604 2.78448 
1 1.46656 -0.820672 -3.5254 
1 -0.606788 -1.18614 3.60028 
1 0.302328 0.365766 -2.51159 
1 -0.882557 -1.25615 -0.836444 
1 0.0716914 -0.325596 1.29084 
1 3.1386 -3.43583 -0.123643 
1 -1.52679 3.6317 1.77469 
1 2.46314 -0.335929 -3.58082 
1 3.47575 -2.68031 -1.97041 
1 1.02725 3.09654 1.55092 
1 0.600527 3.29071 -0.297259 
1 -3.59796 -2.32516 0.928794 
1 0.969148 -3.68088 2.46616 
1 -1.44075 -3.52005 -2.17735 
1 1.66189 0.595199 0.611302 
1 -3.52199 1.569 2.99707 
1 3.57766 -2.33086 2.97826 
1 -1.18426 1.42483 0.510271 
1 -0.594401 -0.604778 -2.30185 
1 2.40713 2.51564 2.90909 
1 -1.46745 2.1809 3.32321 
1 1.83665 1.79807 2.37843 
1 0.464619 -2.12659 3.274 
1 2.82749 -0.497117 -0.0366831 
1 -1.3444 -0.735613 -1.60144 
1 2.83152 -3.41928 2.58956 
1 -1.87105 -1.69509 -1.24319 
1 2.77261 -1.71369 2.94395 
1 -3.67198 0.137517 -3.14939 
1 2.10737 -0.23198 -1.65455 
1 1.20302 -0.0816657 -0.142808 
1 2.81797 3.3539 3.39365 
1 -1.10185 -2.13037 -3.54067 
1 0.0292523 -2.18648 -2.24392 
1 -3.64895 -1.28312 3.2443 
1 -3.41595 -3.08107 -0.538259 
1 -1.99856 -0.722096 -0.793218 
1 -2.84924 -1.39729 -0.948142 
1 -2.50199 3.6107 1.23301 
1 0.0352877 1.63281 1.3269 
1 -0.221647 1.22602 -0.899453 
1 0.296379 -2.46796 -3.2183 
1 0.986918 -1.84419 1.57608 
1 -0.421659 0.783963 0.8616 
1 -1.89266 0.875648 -0.115334 
1 -3.14197 -2.21098 -0.018197 
1 -3.15913 -3.19815 0.48559 
1 1.82967 -3.72664 3.10703 
1 1.47934 -3.60037 -0.454459 
1 0.823907 0.162002 2.75187 
1 -1.80601 0.482514 -2.73115 
1 -1.70727 -1.89128 3.04798 
1 -1.83898 -3.16332 -0.631962 
1 0.321075 -3.52165 -3.25078 
1 -2.17756 2.96182 0.395664 
1 0.603926 1.12352 -1.72075 
1 0.937054 -2.61237 2.34472 
1 1.84457 -2.52408 1.35371 
1 -2.27056 -0.105192 0.0374886 
1 -2.94059 -0.400777 -1.29588 
1 1.72806 -0.675564 2.17494 
1 2.82117 -0.0315493 -2.59522 
1 -3.05236 2.59108 3.04217 
1 -1.88617 2.1936 -3.16013 
1 2.88271 1.54049 2.82896 
1 0.936227 1.95502 -2.2992 
1 -0.0656619 0.724068 2.89543 
1 -0.571703 -2.251 3.03198 
1 -0.944714 2.09359 1.27859 
1 -0.08072 -1.30867 2.69043 
1 -0.117532 -2.364 -0.787316 
1 0.385912 2.903 -3.17036 
1 3.54241 1.19451 0.469086 
1 0.90552 1.95387 -3.38121 
1 0.015843 1.57624 3.59121 
1 -0.134258 0.313219 -1.43394 
1 -0.828929 -0.218072 -0.706357 
1 -2.12764 -2.49168 -3.51522 
1 -0.693916 3.41737 2.42312 
1 -2.2931 -2.1023 -2.35859 
1 -0.069453 2.62159 1.72021 
1 -0.995008 2.52419 -2.70607 
1 -0.860519 0.738691 -0.197412 
1 1.88049 2.38729 -1.88928 
1 -1.96493 -2.24373 -0.119196 
1 1.54862 -2.88425 0.364954 
1 -3.03799 -1.30172 2.25083 
1 0.397325 -0.599213 0.291291 
1 -2.00053 0.115099 3.1407 
1 -1.76427 3.30579 -2.98101 
1 2.06224 -0.143766 1.24364 
1 3.56917 3.15536 -2.24468 
1 1.79609 0.151424 -2.77653 
1 -2.2371 -3.22826 2.31141 
1 -2.20649 3.63549 -1.35716 
1 -0.690322 -1.05256 0.869345 
1 0.882046 -0.509808 -2.73213 
1 2.58745 -2.72382 3.33827 
1 -0.422738 3.11909 -0.0948784 
1 -3.51245 0.455016 -1.45407 
1 -0.20056 3.48259 3.38348 
1 -3.43395 0.551975 1.19228 
1 -1.10663 3.56741 -1.1289 
1 -0.410041 -3.48963 0.511617 
1 1.97578 0.674802 -3.65737 
1 1.83433 -1.29459 3.13016 
1 -1.69795 1.52721 1.7793 
1 0.906265 2.38245 -1.28784 
1 1.52672 -1.82544 0.544869 
1 -3.02747 1.37955 -1.7809 
1 -3.42119 1.7974 -2.73791 
1 -3.09542 -3.0072 2.90218 
1 -1.60385 -0.64204 1.339 
1 -2.04038 0.954277 -1.802 
1 0.97983 -1.55321 2.58633 
1 2.64226 0.594362 0.230116 
1 2.82631 2.8526 -1.4913 
1 1.96153 -1.34016 1.37536 
1 -2.12147 -0.098223 -1.88603 
1 -2.58699 1.80797 3.57498 
1 -2.57267 3.67893 -0.293517 
1 -1.70071 3.04754 2.65766 
1 -3.46321 -3.38497 -2.57259 
1 -2.4515 1.36468 -2.764 
1 1.47937 2.85682 2.52664 
1 0.126378 -3.50286 -1.75371 
1 1.1521 0.994113 -2.90869 
1 0.192513 0.633561 1.80316 
1 1.07673 2.38205 -0.224577 
1 2.47525 0.267851 -0.763162 
1 1.05626 0.121623 -3.59118 
1 2.55238 2.4655 -3.48239 
1 -2.54775 -1.54044 -3.2232 
1 -0.480493 -2.99753 -3.69639 
1 -2.34113 -3.14545 -2.6617 
1 -2.80367 0.81526 3.13396 
1 -1.68849 0.291155 -0.986043 
1 3.03703 0.61915 -3.71098 
1 0.171491 3.64095 1.82518 
1 3.7441 -0.761548 -0.528062 
1 1.73483 1.20489 -1.90941 
1 -2.41285 -1.32232 0.0180351 
1 -2.94287 -3.08983 -1.71333 
1 2.80045 -0.945926 0.937157 
1 0.0633252 -1.45638 -0.329915 
1 0.10713 1.62807 2.38963 
1 1.77551 2.84089 0.849445 
1 -0.921396 -1.75067 0.0709529 
1 -0.883934 0.806808 3.66979 
1 -0.0695917 -0.49109 -3.19542 
1 -0.305983 -3.41052 -0.649489 
1 1.95707 -2.99099 -2.28712 
1 0.158814 -0.503018 -0.753798 
1 1.76657 1.82759 -0.915868 
1 2.62551 1.75853 -1.53493 
1 -1.0974 1.32548 -1.47912 
1 1.11603 -1.20248 -0.248769 
1 -1.80816 0.469497 1.82169 
1 1.17753 3.6322 0.589839 
1 -1.4172 -0.725488 2.94301 
1 2.49319 -2.14809 -1.62784 
1 3.56757 0.90686 -2.39914 
1 2.89891 -1.39016 1.95146 
1 -2.09439 -3.16727 0.515852 
1 2.67291 1.45176 -0.467705 
1 0.980545 -2.64532 -1.96586 
1 3.1899 -2.39344 0.0850611 
1 -0.715758 -2.86991 -1.59705 
1 -0.817654 1.48727 2.87821 
1 3.61988 -0.632237 2.40375 
1 -1.68569 -1.54045 0.741901 
1 2.49831 3.04412 -2.59566 
1 3.41052 -3.12162 1.514 
1 -0.518083 -1.53223 -2.86037 
1 -1.0811 0.366842 2.62621 
1 -3.29062 -2.27052 -2.87135 
1 -1.43894 -0.162388 -3.48138 
1 -3.12066 -0.706784 -3.47892 
1 -1.2441 3.5339 3.45909 
1 0.977552 3.4627 -1.28519 
1 -3.10452 -0.695357 0.433539 
1 -1.40418 -3.21148 -3.2355 
1 2.28717 -2.42004 -3.15485 
1 0.678496 -0.682065 2.1333 
1 2.53365 1.0006 -2.76791 
1 -2.53045 -2.21056 2.38602 
1 1.8283 -1.28151 -1.55329 
1 -2.78615 2.56795 1.18893 
1 2.00779 -0.703555 -0.633567 
2 1.6429 0.0659235 -0.937064 
2 0.407602 -3.01002 -2.51463 
2 -0.929933 -0.793317 -3.12693 
2 3.63044 -0.691986 0.89157 
2 2.44786 3.42048 1.09073 
2 -3.36132 3.27824 -2.92356 
2 1.83115 3.65302 -2.66815 
2 -0.339978 1.13587 -3.11803 
2 -1.63303 -1.46731 -0.401711 
2 1.77523 -3.38265 1.03013 
2 -1.32092 2.79355 -3.521 
2 -0.784774 1.86798 -2.16429 
2 0.188157 -2.65188 -1.5453 
2 2.60333 0.159226 3.11717 
2 -3.13165 -1.56747 0.696782 
2 -3.55231 0.419009 3.44752 
2 -2.53166 3.61147 -3.28877 
2 1.28589 -0.667824 -1.97318 
2 1.27779 -0.160689 0.739464 
2 -1.44322 0.0858292 -0.171464 
2 -1.6651 3.56607 0.890253 
2 2.20978 1.06341 -1.13924 
2 2.05881 -0.00770998 -0.0102052 
2 -0.708882 -3.65463 1.6014 
2 2.71722 -2.55356 -2.40184 
2 1.25344 -1.294 -2.83477 
2 2.96205 -1.0823 3.55503 
2 2.57804 -3.02762 -1.60349 
2 -0.547745 -0.885967 -0.0938122 
2 1.58011 3.07998 -0.0182709 
2 0.599055 2.95616 2.32776 
2 -3.42908 2.02154 -3.65912 
2 1.59936 -2.13546 -1.5643 
2 -1.28971 1.01592 -2.26579 
2 -3.07436 2.16747 -1.32395 
2 -0.867255 0.601194 -1.05704 
2 -3.01408 0.178032 0.492002 
2 -2.39155 0.465657 2.45623 
2 2.71569 -2.07244 -0.625558 
2 3.33365 -1.89068 -1.58798 
2 -1.75271 -1.8761 -3.022 
2 3.4495 -3.05499 0.623834 
2 -1.47988 -0.288378 2.15886 
2 2.26725 -2.33974 0.432708 
2 2.21329 -1.95937 3.57303 
2 0.877936 -2.11879 -2.67382 
2 -1.26917 0.893223 1.23259 
2 -1.44065 -0.301615 -2.47306 
2 -0.733197 -3.36397 3.01293 
2 2.75792 0.94589 2.16446 
2 0.160386 -1.05435 -2.51299 
2 1.2377 2.96384 -1.93629 
2 -2.65106 0.657674 1.55629 
2 -2.33434 2.75866 -1.36796 
2 -2.59478 -2.90055 -0.169697 
2 -2.42749 1.98272 1.70969 
2 -1.6176 -2.42253 0.699978 
2 -3.42595 -3.66224 1.17644 
2 -1.52146 -3.58981 2.63927 
2 0.071011 3.54123 -2.54931 
2 -3.5067 -2.58385 -1.23307 
2 -2.30386 -2.66319 3.10726 
2 3.54976 1.53466 -0.36339 
2 0.99183 -1.41458 3.45644 
2 -2.79963 -0.651339 -0.435151 
2 -2.87029 -0.445769 -2.22636 
2 0.343268 2.41066 3.57054 
2 -2.13275 -0.748343 0.622881 
2 0.404652 1.27594 -2.56427 
2 3.59254 -3.01647 2.41497 
2 -0.528037 -2.40624 -2.93908 
2 -0.456153 1.53658 -0.0513708 
2 -3.06965 -3.68209 -1.06122 
2 3.58685 -1.58299 2.45124 
2 -0.21959 -1.92745 -3.66774 
2 -2.02488 -3.15665 1.43325 
2 0.390704 -3.43442 0.92389 
2 1.42877 -2.70842 -0.491615 
2 -2.24862 -0.51277 3.73214 
2 -2.90772 3.56421 2.86066 
2 2.57254 2.28863 -0.81107 
2 -1.78121 1.17502 -0.937146 
2 0.039156 -2.11577 1.22959 
2 -3.45099 -1.53944 -3.37978 
2 0.951979 0.787777 -0.00262352 
2 -3.26375 -1.39119 -0.192513 
2 -0.894677 2.83004 3.05323 
2 -1.28164 -1.45644 1.49126 
2 2.51025 -0.659838 1.76514 
2 -0.454638 -0.590237 -1.41862 
2 -0.849701 1.70209 3.72355 
2 2.53293 -3.2134 1.72312 
2 2.36331 3.29913 2.48725 
2 2.78302 -0.0774316 0.767345 
2 1.61512 0.251229 2.30557 
2 -1.67851 -2.52316 2.40174 
2 -0.951348 -1.45526 2.83235 
2 -0.846493 2.55683 -0.591013 
2 -2.86803 -1.952 1.57583 
2 -3.63908 -2.51743 -3.6737 
