ITEM: TIMESTEP
134
ITEM: NUMBER OF ATOMS
500
ITEM: BOX BOUNDS xy xz yz pp pp pp
-3.7345 3.77931 0.044814
-3.7345 3.7345 0
-3.7345 3.7345 0
ITEM: ATOMS type xu yu zu 
1 0.0290656 -2.1856 -2.24353 
1 -0.926889 -1.77636 -1.7921 
1 -0.518754 -1.53139 -2.85973 
1 -1.29302 -2.44652 -2.51271 
2 -1.75274 -1.87562 -3.02195 
1 -3.29417 -1.21592 -2.53951 
1 -1.16413 -2.31394 -0.824125 
1 -3.29176 -2.27193 -2.87137 
1 -0.715282 -2.86921 -1.59742 
1 -1.49132 -1.21637 -2.52702 
1 -2.29368 -2.10227 -2.35875 
1 -2.84885 -1.39709 -0.947701 
1 -2.54849 -1.54127 -3.2237 
1 -3.12123 -0.707838 -3.47898 
1 -2.34179 -3.14501 -2.66311 
1 -0.117008 -2.36203 -0.788646 
1 -3.18901 -2.00496 -1.79504 
1 -2.41965 -1.12949 -1.92635 
1 -2.64478 -2.44255 -0.936762 
1 -1.85363 -2.73138 -1.61018 
1 -0.594753 -0.603832 -2.30084 
1 -0.882087 -1.25503 -0.835786 
1 -2.24865 -0.549109 -2.84878 
2 -1.63287 -1.46507 -0.399852 
1 -1.87029 -1.69402 -1.24172 
1 -2.94368 -3.08987 -1.71523 
2 -0.528442 -2.40538 -2.93883 
1 -1.34477 -0.734789 -1.60037 
1 -3.46329 -3.38462 -2.57565 
2 -0.930153 -0.792854 -3.12667 
1 -1.99792 -0.721309 -0.791206 
1 -0.46045 -3.17648 -2.58182 
1 -0.0162703 -1.38953 -1.43919 
1 -0.828974 -0.216632 -0.706188 
2 -0.454058 -0.5908 -1.41701 
1 -2.93968 -0.40006 -1.29461 
1 -1.40453 -3.21078 -3.23531 
2 -0.546738 -0.883312 -0.0945406 
2 0.159744 -1.05303 -2.51259 
1 0.158925 -0.502908 -0.750171 
2 -1.44079 -0.300462 -2.47418 
2 -2.79965 -0.651077 -0.434362 
1 -1.10159 -2.12987 -3.54068 
1 0.0626563 -1.45646 -0.326254 
2 -3.45264 -1.54098 -3.37964 
2 -3.26481 -1.39078 -0.193032 
1 -1.63405 -1.1883 -3.58477 
1 -1.8388 -3.16281 -0.632137 
1 -3.41671 -3.08047 -0.537825 
1 -0.309899 -3.40759 -0.646526 
2 -2.87091 -0.446453 -2.22531 
1 -1.44182 -3.51903 -2.17756 
1 -1.96422 -2.24288 -0.120052 
1 -3.02155 -3.09599 -3.49909 
1 -1.44005 -0.162655 -3.48037 
2 -3.64011 -2.51785 -3.67408 
1 0.126856 -3.50189 -1.75434 
2 -2.59428 -2.90028 -0.170577 
1 -0.0702608 -0.490182 -3.19471 
2 -3.50722 -2.58507 -1.23387 
1 -2.12702 -2.49104 -3.51635 
1 -2.1214 -0.0983097 -1.88681 
2 0.188932 -2.65129 -1.54539 
1 0.295475 -2.46761 -3.21799 
1 0.320753 -3.52144 -3.25075 
1 0.358224 -0.496725 -1.8422 
2 0.407536 -3.00992 -2.51492 
1 0.472477 -1.41675 -3.26876 
1 0.729852 -3.00456 -0.961627 
1 0.804504 -2.22124 -0.144428 
1 0.842424 -1.43807 -2.09353 
1 0.851951 -1.92689 -1.15127 
2 -3.07053 -3.68052 -1.06164 
2 0.876597 -2.11813 -2.67341 
1 0.881391 -0.509335 -2.73227 
1 0.980215 -2.64565 -1.96578 
1 1.11226 -0.622121 -1.13811 
1 1.11519 -1.20457 -0.250445 
1 1.20097 -0.0823573 -0.146364 
2 -0.219103 -1.92618 -3.66741 
1 1.23474 -2.8802 -3.02747 
2 1.2524 -1.29361 -2.83569 
1 -0.48088 -2.99752 -3.69659 
2 1.28594 -0.666219 -1.97335 
1 1.39324 -1.90755 -3.42427 
1 -3.69898 -1.1285 -1.54374 
2 1.4292 -2.70884 -0.491334 
1 -3.14053 -2.21025 -0.0190116 
1 0.956487 -3.72322 -2.37586 
1 1.46705 -0.818617 -3.525 
1 1.47855 -3.60063 -0.453608 
2 1.60018 -2.13693 -1.56439 
1 1.73559 -1.92832 -2.41 
1 1.76822 -2.9377 -1.2596 
1 1.82772 -1.28269 -1.55355 
1 1.82888 -1.9355 -0.696892 
1 -2.54408 -1.20213 1.25979 
1 -1.83337 -2.30142 1.5609 
1 -0.837205 -2.11437 1.09837 
1 -1.685 -1.53971 0.741706 
2 0.0409322 -2.11515 1.23023 
2 -2.13175 -0.74818 0.62264 
1 -1.60125 -0.641528 1.33775 
1 -3.59591 -2.32547 0.927941 
2 -1.28028 -1.45613 1.49084 
1 -1.21699 -3.12137 1.10727 
2 -2.86727 -1.95226 1.575 
2 -1.61649 -2.42156 0.699196 
1 -2.50583 -2.17991 0.778083 
1 -3.10502 -0.695031 0.433888 
1 -0.410617 -3.48951 0.514925 
2 -3.12951 -1.56782 0.695458 
1 -0.68683 -1.05208 0.86932 
1 -2.8343 -2.84918 1.4791 
1 -3.23778 -0.465801 1.52474 
1 -0.191628 -2.93965 1.38859 
1 0.0188365 -1.32765 1.60968 
1 -0.526594 -0.133542 0.347264 
2 -0.70927 -3.65356 1.60089 
1 0.0741854 -0.325207 1.29412 
1 -1.40114 -0.750059 0.0963133 
1 -2.09292 -3.16715 0.514113 
1 -0.92156 -1.75036 0.0711095 
1 -2.4181 -0.0437271 1.08639 
2 -2.02512 -3.15596 1.43194 
1 -3.15761 -3.19846 0.485341 
1 -1.11011 -2.83725 0.0886591 
1 -0.164447 -2.42653 0.328939 
1 -3.67233 -1.39989 1.39422 
1 0.401782 -0.600506 0.29631 
2 0.390995 -3.43576 0.928925 
1 0.506817 -3.20454 0.05289 
1 0.422315 -1.57788 0.655401 
1 0.704451 -2.5691 0.881254 
1 0.988643 -1.84993 1.57751 
1 1.03641 -0.869057 1.16031 
1 1.04038 -3.27919 1.51429 
2 -3.42543 -3.66375 1.17542 
2 1.26747 -0.165559 0.735828 
1 -2.41374 -1.32249 0.0191146 
1 -2.27073 -0.104375 0.0383336 
1 1.54852 -2.88511 0.365264 
1 1.52642 -1.82678 0.542236 
2 1.7773 -3.3822 1.0308 
1 1.84255 -0.764144 0.423139 
1 -3.32841 1.08995 -3.47837 
1 -3.51343 0.454054 -1.45341 
1 -3.42179 1.79507 -2.73646 
1 -3.10474 1.6189 -0.653398 
1 -3.18907 0.121403 -0.377477 
1 -3.02854 1.37931 -1.78013 
1 -2.90084 0.436244 -2.39585 
1 -2.62288 0.256812 -3.44491 
1 -2.6054 0.767635 -0.942781 
1 -2.45208 1.36479 -2.76364 
1 -2.04187 0.954433 -1.80203 
1 -1.8954 1.05278 -3.63913 
1 -1.89212 0.876199 -0.115897 
2 -1.78228 1.176 -0.937425 
1 -1.80688 0.483367 -2.73172 
1 -1.68912 0.291907 -0.986801 
2 -1.44406 0.0868358 -0.172493 
2 -1.29101 1.01649 -2.26568 
1 -1.17396 1.74041 -0.535935 
1 -1.11837 1.47126 -2.96387 
1 -1.09883 1.32645 -1.47958 
1 -1.09705 0.272616 -1.86237 
1 -3.67208 0.137052 -3.15 
1 -0.859714 0.739143 -0.197047 
2 -0.868322 0.602764 -1.05698 
1 -0.735222 0.328839 -2.86124 
2 -0.455268 1.53706 -0.0523081 
1 -0.390279 1.09305 -2.20955 
2 -0.341721 1.13649 -3.11793 
1 -0.22309 1.22801 -0.901212 
1 -0.135682 0.313147 -1.43256 
1 0.12355 0.549195 -3.54127 
1 0.139994 0.451237 -0.246443 
1 0.300984 0.365806 -2.51104 
2 0.404308 1.27609 -2.5662 
1 0.602838 1.12381 -1.72228 
1 0.800819 1.42704 -0.663278 
1 0.845601 0.414888 -0.988012 
1 1.05479 0.122517 -3.59259 
1 1.15279 0.993195 -2.90793 
1 1.19153 0.220256 -1.9396 
2 1.64288 0.0642413 -0.938237 
1 1.69695 0.84067 -0.450754 
1 1.73384 1.20791 -1.90805 
1 1.76606 1.82755 -0.914137 
1 1.79612 0.148431 -2.78181 
1 1.87136 1.83536 -2.8827 
1 -3.4339 0.552517 1.19368 
1 -2.96013 1.49402 1.19167 
1 -2.91107 0.997711 0.200204 
2 -3.01428 0.178215 0.494052 
2 -2.64996 0.656632 1.55619 
1 -2.11168 0.959303 0.925957 
1 -1.8067 0.469635 1.82134 
1 -1.69816 1.52745 1.77869 
1 -1.43832 0.214172 0.687714 
2 -1.26882 0.8953 1.23215 
1 -1.18451 1.42631 0.508793 
1 -0.850874 0.0927248 1.58157 
1 -0.422762 0.787485 0.861606 
1 0.0368882 1.63449 1.3272 
1 0.190935 0.635185 1.80355 
1 0.347177 1.37552 0.30131 
1 0.578778 0.379806 0.694922 
1 0.976473 1.18523 1.23011 
2 0.952346 0.787988 -0.00142383 
1 1.11044 0.142872 1.59527 
1 1.4405 1.55124 0.288858 
1 1.65741 0.589334 0.609783 
1 1.8491 -2.52172 1.35077 
1 1.92264 -0.845015 -2.52715 
1 1.933 0.882794 1.68833 
1 1.9556 -2.99236 -2.2871 
1 1.96417 -1.346 1.37317 
1 1.97644 0.672664 -3.66147 
1 2.00749 -0.704602 -0.634418 
2 2.05666 -0.00829437 -0.0115448 
1 2.05771 -0.147082 1.24321 
1 2.28513 -2.42013 -3.15383 
2 2.57681 -3.02928 -1.60385 
1 3.56623 -3.60024 -1.42593 
1 3.12494 -2.74474 -0.981411 
1 3.25253 -2.8199 -3.07005 
1 3.66871 -1.87124 -0.75859 
1 3.17471 -0.272459 -1.28777 
1 3.1382 -3.43601 -0.124109 
1 2.82037 -0.0331555 -2.59563 
2 2.71719 -2.55686 -2.40286 
1 2.10675 -0.23314 -1.65502 
1 3.7506 -0.290056 -2.19033 
1 2.82583 -0.495183 -0.0364606 
2 3.33406 -1.89123 -1.58924 
1 2.81689 -1.28842 -0.999281 
1 3.21943 -1.89641 -3.58245 
2 2.7165 -2.07283 -0.624314 
1 3.74225 -0.761769 -0.527966 
1 2.52002 -3.66166 -0.993307 
1 3.33071 -0.892889 -3.11562 
1 3.476 -2.68117 -1.97171 
1 2.30071 -2.81839 -0.326625 
1 2.86128 -3.48952 -2.27922 
1 3.22037 -1.82624 -2.51757 
1 2.2993 -3.46947 -3.29971 
1 2.83615 -0.98365 -2.03687 
1 2.46375 -0.336727 -3.58324 
1 2.49323 -2.14914 -1.63047 
1 2.36715 -1.3644 -3.29513 
2 2.78106 -0.0757934 0.769902 
2 2.53455 -3.21461 1.7215 
2 2.26743 -2.33983 0.43406 
1 2.58785 -3.07019 0.825241 
1 3.23638 -0.203338 1.52131 
2 3.45131 -3.05518 0.62249 
2 3.63049 -0.692005 0.892986 
2 2.50958 -0.661208 1.76257 
1 3.41196 -3.12173 1.51262 
1 2.79994 -0.944533 0.935728 
1 2.48908 -1.55553 0.0627363 
1 3.19123 -2.39363 0.0844222 
1 2.8267 -2.03436 1.07 
1 3.53289 -1.41116 0.339436 
1 3.21838 1.62751 -3.50962 
2 3.54895 1.53486 -0.363231 
1 2.47486 0.268113 -0.76362 
1 3.51351 1.3613 -1.24115 
2 2.20947 1.06431 -1.1386 
1 2.67209 1.45199 -0.466082 
1 2.75768 0.673732 -1.72185 
1 3.41586 0.655531 -0.486517 
1 2.53194 0.998525 -2.77072 
1 2.62531 1.76016 -1.53274 
1 3.56593 0.904316 -2.39911 
1 3.038 0.618115 -3.71372 
1 3.57629 0.0518445 0.422368 
1 2.51638 1.5602 0.647298 
1 2.70043 1.68969 1.71124 
1 2.91075 0.738487 1.26359 
1 2.63965 0.594485 0.230972 
1 3.54256 1.19361 0.46885 
1 -3.59307 3.33592 -0.529382 
2 -3.42951 2.02084 -3.65709 
2 -3.36154 3.2773 -2.92341 
1 -3.16744 3.03659 -1.48656 
2 -3.07547 2.1677 -1.32355 
1 -2.86035 2.59867 -3.15706 
1 -2.78372 2.64718 -0.584332 
1 -2.65979 3.36424 -2.37801 
1 -2.65835 2.32356 -2.11956 
1 -2.57313 3.67927 -0.294389 
2 -2.33499 2.75927 -1.36749 
1 -2.20748 3.63644 -1.35755 
1 -2.19429 1.89934 -1.22499 
1 -2.16363 1.89574 -0.160151 
1 -1.88652 2.19376 -3.16036 
1 -1.76496 3.30587 -2.98094 
1 -1.72187 2.78846 -0.704713 
1 -1.72208 2.92831 -1.97822 
1 -1.67579 1.87583 -2.16284 
2 -1.32108 2.79422 -3.52071 
1 -1.10813 3.56906 -1.12945 
1 -0.985185 2.40145 -1.43997 
1 -0.995389 2.52494 -2.70556 
2 -2.53148 3.61296 -3.28899 
2 -0.846044 2.55962 -0.591556 
2 -0.785664 1.86822 -2.16447 
1 -0.640371 3.42458 -3.12279 
1 -0.610321 3.26079 -2.04827 
1 -0.511548 2.50668 -3.68409 
1 -0.420609 3.12011 -0.0936888 
1 -0.0893116 3.06055 -1.13558 
1 -0.0413046 1.98371 -1.67809 
1 -0.0897112 1.95751 -2.81599 
1 -0.00432172 2.1903 -0.533437 
2 0.0703392 3.54163 -2.54955 
1 0.389285 2.87157 -2.1027 
1 0.386234 2.90318 -3.16906 
1 0.603636 3.28726 -0.296706 
1 0.905829 2.38265 -1.28704 
1 0.905743 1.95415 -3.38095 
1 0.934695 1.95663 -2.29925 
1 0.977539 3.46318 -1.28564 
1 1.07668 2.37762 -0.223807 
2 1.23707 2.96355 -1.93654 
1 1.35446 3.61315 -3.42737 
1 1.42619 2.80995 -2.77104 
2 1.57622 3.07925 -0.0159934 
2 1.83243 3.65065 -2.66765 
1 1.87944 2.38724 -1.88762 
1 1.86377 2.91194 -0.877796 
1 -3.60155 3.03926 1.56157 
1 -3.23837 3.19651 0.470044 
1 -3.15392 2.09143 0.300942 
1 -2.78477 2.5683 1.1879 
1 -2.50136 3.61114 1.23106 
2 -2.42663 1.98325 1.70886 
1 -2.17674 2.96225 0.394192 
1 -2.00213 1.98701 0.860629 
1 -1.80115 2.64228 1.6373 
2 -1.66379 3.56702 0.889301 
1 -1.52734 3.6323 1.7743 
1 -1.24393 2.48509 0.233755 
1 -0.871087 3.15863 1.03169 
1 -1.36304 3.58215 0.0466149 
1 -0.943512 2.09281 1.27871 
1 -0.246155 2.24013 0.49721 
1 -0.0689452 2.62246 1.72152 
1 0.171601 3.6425 1.82323 
1 0.232343 3.16771 0.807464 
1 0.810196 2.26063 0.833152 
1 1.02654 3.09795 1.55199 
1 1.17764 3.63245 0.592633 
1 1.74111 1.88833 1.2871 
1 1.77715 2.84272 0.853072 
1 1.93374 3.51225 -1.80164 
1 1.92553 3.62768 1.77356 
1 3.5694 3.1566 -2.24358 
1 2.86556 3.01454 -0.370934 
1 3.55733 2.60453 -3.15689 
1 2.55287 2.46443 -3.48132 
1 3.58824 2.34584 -0.82992 
1 2.49928 3.04138 -2.59348 
1 3.68915 2.19867 -1.85418 
1 3.32171 3.60104 -3.18849 
1 2.82622 2.85329 -1.48963 
1 2.893 2.00986 -2.53404 
2 2.57113 2.28903 -0.808935 
1 2.95174 3.41799 1.80082 
1 3.61243 2.02835 1.19554 
1 2.24133 3.60793 0.262867 
1 2.14691 2.33365 -0.00423676 
1 3.29202 3.55079 0.793143 
1 2.79039 2.62435 0.965441 
2 2.45118 3.42225 1.09036 
1 3.25586 2.17918 0.148651 
1 -1.02199 -1.97129 2.14003 
1 -0.570588 -2.25013 3.03235 
1 -0.967854 -3.026 2.19578 
1 -2.36726 -0.385402 2.19055 
1 -2.52939 -2.2097 2.38551 
1 -1.4164 -0.724837 2.94226 
2 -1.6777 -2.52192 2.40163 
1 -1.89743 -1.34402 2.13468 
1 -1.7061 -1.89061 3.04754 
1 -2.46198 -1.13723 3.14913 
1 -3.03698 -1.30164 2.2507 
1 -2.23635 -3.22685 2.30996 
1 -3.5539 -2.2824 2.00548 
1 -1.44266 -2.8933 3.17685 
2 -1.52238 -3.58953 2.63929 
2 -1.47794 -0.288477 2.15773 
2 -0.950286 -1.45427 2.83181 
1 -0.86748 -0.925283 2.0503 
1 -2.95406 -2.08091 3.42581 
2 -0.733929 -3.36411 3.01295 
1 -3.09508 -3.00764 2.89921 
2 -2.30381 -2.66353 3.10636 
1 -0.0794859 -1.30827 2.69107 
1 -2.27673 -3.52909 3.35513 
1 -3.02922 -0.233617 3.06215 
1 -0.19398 -0.202273 2.39291 
1 0.0310033 -3.15077 2.68347 
1 0.00822014 -2.22459 2.12848 
1 -0.536092 -0.159731 3.38898 
1 -3.2791 -3.56938 2.05299 
1 -0.606694 -1.18539 3.60042 
1 -3.64887 -1.28496 3.24415 
1 0.46653 -2.1248 3.27556 
1 0.499207 -0.68331 3.3476 
1 0.679088 -0.679279 2.13913 
1 0.85507 -3.1293 3.39003 
1 0.967729 -3.68165 2.46673 
2 0.990714 -1.41006 3.45628 
1 0.981836 -1.55262 2.58643 
1 0.936771 -2.6127 2.35088 
2 -2.24935 -0.512849 3.73208 
1 1.58254 -2.38129 3.15241 
1 1.76315 -0.157245 3.10029 
1 1.72874 -0.682699 2.17388 
1 1.83613 -1.29727 3.13349 
1 1.82918 -3.72122 3.1069 
2 -3.55221 0.418658 3.44622 
1 -3.52212 1.56984 2.99745 
1 -3.22602 0.341402 2.20622 
1 -2.8033 0.815711 3.13345 
1 -2.58784 1.80979 3.57377 
1 -2.68904 1.25452 2.17813 
2 -2.39013 0.465973 2.45624 
1 -1.99982 0.115676 3.14122 
1 -1.81799 1.12913 2.77213 
1 -1.08099 0.367743 2.62622 
1 -0.885464 0.807775 3.6702 
1 -0.817513 1.48875 2.87892 
1 -0.740207 1.12797 1.89039 
1 -0.0666952 0.72596 2.89643 
1 0.0149467 1.5772 3.59225 
1 0.107116 1.62951 2.38986 
2 -0.850707 1.70304 3.72415 
1 0.823115 0.166019 2.75431 
1 0.998411 1.07129 3.39897 
1 1.05734 1.08261 2.30462 
2 1.61254 0.24638 2.30321 
1 1.83569 1.79825 2.37928 
1 1.94401 1.6816 3.47862 
1 1.93967 -1.89901 2.25465 
1 1.92007 -2.97136 2.33457 
1 2.05859 0.844141 2.78121 
2 3.58755 -1.58405 2.45057 
1 2.77443 -1.71405 2.94144 
2 2.21908 -1.96025 3.57359 
1 2.90081 -1.3894 1.94978 
1 2.64493 -0.693063 2.80782 
1 3.62101 -0.633403 2.40421 
2 3.59278 -3.01795 2.41316 
1 2.82998 -3.41765 2.58959 
2 2.96139 -1.08365 3.55457 
1 3.42383 -0.31814 3.42305 
1 3.50211 -3.28707 3.42288 
1 2.85767 -2.45638 2.12662 
1 3.57764 -2.33279 2.9774 
1 2.59296 -2.72469 3.34245 
1 3.64113 1.23614 1.9732 
1 2.88201 1.53655 2.8317 
2 2.75675 0.943432 2.16535 
2 2.59924 0.160106 3.11549 
1 3.33296 0.520173 2.73386 
1 2.48935 0.113509 2.18686 
1 -3.24508 3.39045 3.68106 
1 -3.22192 2.1513 2.08148 
1 -3.05235 2.59259 3.03905 
2 -2.90934 3.56267 2.85948 
1 -2.63474 3.0625 2.16578 
1 -2.20817 2.12333 2.55602 
1 -2.19029 2.92627 3.5813 
1 -1.70032 3.04747 2.65766 
1 -1.46775 2.18167 3.32318 
1 -1.24442 3.53449 3.45926 
1 -0.992193 2.34332 2.30235 
2 -0.894515 2.83111 3.05341 
1 -0.693748 3.41793 2.42234 
1 -0.200443 3.48319 3.38305 
1 -0.0617637 2.58573 2.80541 
2 0.342964 2.41097 3.57163 
2 0.599979 2.9554 2.32903 
1 0.753729 3.14437 3.25925 
1 0.917071 2.063 2.99301 
1 0.899303 2.12425 1.91506 
1 1.48147 2.8584 2.5276 
1 1.60018 2.67374 3.62035 
1 2.40871 2.51334 2.90989 
1 3.67622 3.32427 2.71052 
1 2.23519 2.64128 1.84829 
1 2.81517 3.35417 3.39293 
1 3.40577 2.44543 3.28804 
1 3.23971 2.44066 2.22221 
2 2.36305 3.29882 2.48947 
