ITEM: TIMESTEP
133
ITEM: NUMBER OF ATOMS
500
ITEM: BOX BOUNDS xy xz yz pp pp pp
-3.7345 3.77185 0.037345
-3.7345 3.7345 0
-3.7345 3.7345 0
ITEM: ATOMS type xu yu zu 
1 3.21759 -1.89641 -3.58245 
1 -1.6366 -1.1883 -3.58477 
1 -2.95571 -2.08091 3.42581 
1 2.81444 -1.28842 -0.999281 
1 0.911274 2.063 2.99301 
1 3.23354 2.44066 2.22221 
1 2.64189 -0.693063 2.80782 
1 -0.617317 3.26079 -2.04827 
1 2.75327 0.673732 -1.72185 
1 -3.11009 1.6189 -0.653398 
1 0.854465 -3.1293 3.39003 
1 0.729122 -3.00456 -0.961627 
1 -1.25015 2.48509 0.233755 
1 -1.02376 -1.97129 2.14003 
1 -2.62688 0.256812 -3.44491 
1 -2.54661 -1.20213 1.25979 
1 -1.4435 -2.8933 3.17685 
1 -0.739285 0.328839 -2.86124 
1 1.03355 -0.869057 1.16031 
1 0.354986 -0.496725 -1.8422 
1 1.34711 3.61315 -3.42737 
1 3.58216 2.34584 -0.82992 
1 -2.00785 1.98701 0.860629 
1 -1.40413 -0.750059 0.0963133 
1 3.68322 2.19867 -1.85418 
1 2.85881 3.01454 -0.370934 
1 1.10657 0.142872 1.59527 
1 1.58118 -2.38129 3.15241 
1 -0.64753 3.42458 -3.12279 
1 3.17125 -0.272459 -1.28777 
1 0.80299 -2.22124 -0.144428 
1 -2.11638 0.959303 0.925957 
1 -0.0186153 -1.38953 -1.43919 
1 1.05252 1.08261 2.30462 
1 1.86579 1.83536 -2.8827 
1 1.83958 -0.764144 0.423139 
1 2.4869 -1.55553 0.0627363 
1 1.73379 -1.92832 -2.41 
1 -3.23009 0.341402 2.20622 
1 -0.87798 3.15863 1.03169 
1 -1.8348 -2.30142 1.5609 
1 -3.19074 -2.00496 -1.79504 
1 -2.69403 1.25452 2.17813 
1 -3.33323 1.08995 -3.47837 
1 2.69501 1.68969 1.71124 
1 0.850144 -1.92689 -1.15127 
1 0.496156 -0.68331 3.3476 
1 -0.870289 -0.925283 2.0503 
1 3.74716 -0.290056 -2.19033 
1 3.23285 -0.203338 1.52131 
1 -0.854701 0.0927248 1.58157 
1 0.506287 -3.20454 0.05289 
1 -1.17944 1.74041 -0.535935 
1 -0.395107 1.09305 -2.20955 
1 -2.25184 -0.549109 -2.84878 
1 3.42041 -0.31814 3.42305 
1 -0.928847 -1.77636 -1.7921 
1 3.21302 1.62751 -3.50962 
1 0.0304196 -3.15077 2.68347 
1 -1.29431 -2.44652 -2.51271 
1 -3.2522 3.39045 3.68106 
1 -1.10105 0.272616 -1.86237 
1 -3.29669 -1.21592 -2.53951 
1 1.92649 3.51225 -1.80164 
1 -0.998271 2.34332 2.30235 
1 1.85713 2.91194 -0.877796 
1 0.893444 2.12425 1.91506 
1 -2.19993 1.89934 -1.22499 
1 0.993605 1.07129 3.39897 
1 1.92839 0.882794 1.68833 
1 2.88725 2.00986 -2.53404 
1 -0.165755 -2.42653 0.328939 
1 -0.968563 -3.026 2.19578 
1 3.66685 -1.87124 -0.75859 
1 1.73549 1.88833 1.2871 
1 1.69238 0.84067 -0.450754 
1 3.28473 3.55079 0.793143 
1 -2.64153 3.0625 2.16578 
1 2.4855 0.113509 2.18686 
1 1.18757 0.220256 -1.9396 
1 -2.16926 1.89574 -0.160151 
1 0.135808 0.451237 -0.246443 
1 -0.197512 -0.202273 2.39291 
1 -1.37036 3.58215 0.0466149 
1 -1.80753 2.64228 1.6373 
1 3.31437 3.60104 -3.18849 
1 -1.90018 1.05278 -3.63913 
1 2.22881 2.64128 1.84829 
1 -0.539667 -0.159731 3.38898 
1 -0.0961067 3.06055 -1.13558 
1 -0.991321 2.40145 -1.43997 
1 -1.2176 -3.12137 1.10727 
1 3.50166 -3.28707 3.42288 
1 0.840127 -1.43807 -2.09353 
1 3.32787 -0.892889 -3.11562 
1 3.5725 0.0518445 0.422368 
1 -3.60832 3.03926 1.56157 
1 0.225441 3.16771 0.807464 
1 -0.0680839 2.58573 2.80541 
1 -0.0954032 1.95751 -2.81599 
1 -2.19696 2.92627 3.5813 
1 -3.60014 3.33592 -0.529382 
1 2.23398 3.60793 0.262867 
1 -2.86669 2.59867 -3.15706 
1 -2.50738 -2.17991 0.778083 
1 -1.72875 2.92831 -1.97822 
1 2.8334 -0.98365 -2.03687 
1 2.94459 3.41799 1.80082 
1 -1.16555 -2.31394 -0.824125 
1 1.82708 -1.9355 -0.696892 
1 2.2998 -2.81839 -0.326625 
1 1.59377 2.67374 3.62035 
1 3.21846 -1.82624 -2.51757 
1 2.51995 -3.66166 -0.993307 
1 2.85639 -2.45638 2.12662 
1 2.825 -2.03436 1.07 
1 0.74685 3.14437 3.25925 
1 -0.517789 2.50668 -3.68409 
1 -0.745069 1.12797 1.89039 
1 -3.02219 -3.09599 -3.49909 
1 -3.70159 -1.1285 -1.54374 
1 -1.82285 1.12913 2.77213 
1 -3.67466 -1.39989 1.39422 
1 2.29904 -3.46947 -3.29971 
1 -0.192423 -2.93965 1.38859 
1 0.703286 -2.5691 0.881254 
1 0.342067 1.37552 0.30131 
1 -1.12357 1.47126 -2.96387 
1 2.36478 -1.3644 -3.29513 
1 -0.461008 -3.17648 -2.58182 
1 -1.49384 -1.21637 -2.52702 
1 -2.83519 -2.84918 1.4791 
1 -2.42225 -1.12949 -1.92635 
1 2.14084 2.33365 -0.00423676 
1 0.0164296 -1.32765 1.60968 
1 0.574664 0.379806 0.694922 
1 3.50841 1.3613 -1.24115 
1 1.91975 -0.845015 -2.52715 
1 -2.90501 0.436244 -2.39585 
1 -2.96536 1.49402 1.19167 
1 -3.24105 -0.465801 1.52474 
1 3.56609 -3.60024 -1.42593 
1 0.804201 2.26063 0.833152 
1 1.39142 -1.90755 -3.42427 
1 -2.64608 -2.44255 -0.936762 
1 -2.7901 2.64718 -0.584332 
1 2.58718 -3.07019 0.825241 
1 -1.6814 1.87583 -2.16284 
1 1.23388 -2.8802 -3.02747 
1 2.51108 1.5602 0.647298 
1 1.91816 3.62768 1.77356 
1 0.420159 -1.57788 0.655401 
1 -0.530195 -0.133542 0.347264 
1 -3.15975 2.09143 0.300942 
1 -2.66689 3.36424 -2.37801 
1 0.956476 -3.72322 -2.37586 
1 -0.25213 2.24013 0.49721 
1 -3.55535 -2.2824 2.00548 
1 1.93783 -1.89901 2.25465 
1 -1.72839 2.78846 -0.704713 
1 3.3287 0.520173 2.73386 
1 3.60667 2.02835 1.19554 
1 -2.66441 2.32356 -2.11956 
1 1.75957 -0.157245 3.10029 
1 -3.19293 0.121403 -0.377477 
1 -0.0470228 1.98371 -1.67809 
1 3.24995 2.17918 0.148651 
1 3.66916 3.32427 2.71052 
1 1.03992 -3.27919 1.51429 
1 0.382679 2.87157 -2.1027 
1 1.41965 2.80995 -2.77104 
1 -0.0102465 2.1903 -0.533437 
1 3.551 2.60453 -3.15689 
1 -2.60991 0.767635 -0.942781 
1 0.971553 1.18523 1.23011 
1 -3.27927 -3.56938 2.05299 
1 -3.2278 2.1513 2.08148 
1 1.9193 -2.97136 2.33457 
1 2.86103 -3.48952 -2.27922 
1 3.41147 0.655531 -0.486517 
1 3.25161 -2.8199 -3.07005 
1 -2.27693 -3.52909 3.35513 
1 -2.21402 2.12333 2.55602 
1 2.78403 2.62435 0.965441 
1 1.76743 -2.9377 -1.2596 
1 -1.44227 0.214172 0.687714 
1 3.63616 1.23614 1.9732 
1 -1.11101 -2.83725 0.0886591 
1 -3.2453 3.19651 0.470044 
1 -2.9158 0.997711 0.200204 
1 0.00671024 -2.22459 2.12848 
1 1.10915 -0.622121 -1.13811 
1 2.90628 0.738487 1.26359 
1 -2.37061 -0.385402 2.19055 
1 1.43522 1.55124 0.288858 
1 -1.89982 -1.34402 2.13468 
1 1.93859 1.6816 3.47862 
1 3.53057 -1.41116 0.339436 
1 0.795657 1.42704 -0.663278 
1 -2.46458 -1.13723 3.14913 
1 3.39959 2.44543 3.28804 
1 -0.838825 -2.11437 1.09837 
1 -1.85464 -2.73138 -1.61018 
1 -3.03272 -0.233617 3.06215 
1 0.470159 -1.41675 -3.26876 
1 3.12395 -2.74474 -0.981411 
1 0.841451 0.414888 -0.988012 
1 -2.42179 -0.0437271 1.08639 
1 -3.17421 3.03659 -1.48656 
1 0.119266 0.549195 -3.54127 
1 2.05401 0.844141 2.78121 
1 1.46413 -0.818617 -3.525 
1 -0.609243 -1.18539 3.60042 
1 0.296883 0.365806 -2.51104 
1 -0.884566 -1.25503 -0.835786 
1 0.0707761 -0.325207 1.29412 
1 3.1379 -3.43601 -0.124109 
1 -1.5347 3.6323 1.7743 
1 2.46035 -0.336727 -3.58324 
1 3.47494 -2.68117 -1.97171 
1 1.01971 3.09795 1.55199 
1 0.596614 3.28726 -0.296706 
1 -3.59732 -2.32547 0.927941 
1 0.967676 -3.68165 2.46673 
1 -1.44204 -3.51903 -2.17756 
1 1.65309 0.589334 0.609783 
1 -3.52743 1.56984 2.99745 
1 3.57623 -2.33279 2.9774 
1 -1.18967 1.42631 0.508793 
1 -0.597883 -0.603832 -2.30084 
1 2.40246 2.51334 2.90989 
1 -1.47367 2.18167 3.32318 
1 1.83016 1.79825 2.37928 
1 0.46492 -2.1248 3.27556 
1 2.82259 -0.495183 -0.0364606 
1 -1.34777 -0.734789 -1.60037 
1 2.82967 -3.41765 2.58959 
1 -1.87233 -1.69402 -1.24172 
1 2.77241 -1.71405 2.94144 
1 -3.67595 0.137052 -3.15 
1 2.10325 -0.23314 -1.65502 
1 1.19732 -0.0823573 -0.146364 
1 2.80808 3.35417 3.39293 
1 -1.1032 -2.12987 -3.54068 
1 0.0275167 -2.1856 -2.24353 
1 -3.65132 -1.28496 3.24415 
1 -3.41736 -3.08047 -0.537825 
1 -2.00093 -0.721309 -0.791206 
1 -2.85118 -1.39709 -0.947701 
1 -2.50871 3.61114 1.23106 
1 0.0315192 1.63449 1.3272 
1 -0.228052 1.22801 -0.901212 
1 0.294208 -2.46761 -3.21799 
1 0.986758 -1.84993 1.57751 
1 -0.427284 0.787485 0.861606 
1 -1.89673 0.876199 -0.115897 
1 -3.14205 -2.21025 -0.0190116 
1 -3.15814 -3.19846 0.485341 
1 1.82916 -3.72122 3.1069 
1 1.47841 -3.60063 -0.453608 
1 0.819214 0.166019 2.75431 
1 -1.8111 0.483367 -2.73172 
1 -1.70795 -1.89061 3.04754 
1 -1.83937 -3.16281 -0.632137 
1 0.32054 -3.52144 -3.25075 
1 -2.18344 2.96225 0.394192 
1 0.59798 1.12381 -1.72228 
1 0.93565 -2.6127 2.35088 
1 1.84789 -2.52172 1.35077 
1 -2.27436 -0.104375 0.0383336 
1 -2.94302 -0.40006 -1.29461 
1 1.72569 -0.682699 2.17388 
1 2.81667 -0.0331555 -2.59563 
1 -3.05868 2.59259 3.03905 
1 -1.89245 2.19376 -3.16036 
1 2.87674 1.53655 2.8317 
1 0.929004 1.95663 -2.29925 
1 -0.0711557 0.72596 2.89643 
1 -0.572073 -2.25013 3.03235 
1 -0.94934 2.09281 1.27871 
1 -0.0819121 -1.30827 2.69107 
1 -0.11838 -2.36203 -0.788646 
1 0.379596 2.90318 -3.16906 
1 3.53763 1.19361 0.46885 
1 0.900054 1.95415 -3.38095 
1 0.00963501 1.5772 3.59225 
1 -0.139729 0.313147 -1.43256 
1 -0.832492 -0.216632 -0.706188 
1 -2.12826 -2.49104 -3.51635 
1 -0.7009 3.41793 2.42234 
1 -2.29531 -2.10227 -2.35875 
1 -0.0753021 2.62246 1.72152 
1 -1.00165 2.52494 -2.70556 
1 -0.864188 0.739143 -0.197047 
1 1.87332 2.38724 -1.88762 
1 -1.96571 -2.24288 -0.120052 
1 1.54767 -2.88511 0.365264 
1 -3.03941 -1.30164 2.2507 
1 0.398648 -0.600506 0.29631 
1 -2.00367 0.115676 3.14122 
1 -1.772 3.30587 -2.98094 
1 2.05412 -0.147082 1.24321 
1 3.56251 3.1566 -2.24358 
1 1.79223 0.148431 -2.78181 
1 -2.23686 -3.22685 2.30996 
1 -2.21485 3.63644 -1.35755 
1 -0.689513 -1.05208 0.86932 
1 0.878166 -0.509335 -2.73227 
1 2.59195 -2.72469 3.34245 
1 -0.427463 3.12011 -0.0936888 
1 -3.51762 0.454054 -1.45341 
1 -0.207661 3.48319 3.38305 
1 -3.43819 0.552517 1.19368 
1 -1.11543 3.56906 -1.12945 
1 -0.410862 -3.48951 0.514925 
1 1.97203 0.672664 -3.66147 
1 1.8337 -1.29727 3.13349 
1 -1.70342 1.52745 1.77869 
1 0.899712 2.38265 -1.28704 
1 1.52451 -1.82678 0.542236 
1 -3.03366 1.37931 -1.78013 
1 -3.42732 1.79507 -2.73646 
1 -3.09581 -3.00764 2.89921 
1 -1.60434 -0.641528 1.33775 
1 -2.04656 0.954433 -1.80203 
1 0.979654 -1.55262 2.58643 
1 2.63532 0.594485 0.230972 
1 2.81964 2.85329 -1.48963 
1 1.96178 -1.346 1.37317 
1 -2.12503 -0.0983097 -1.88681 
1 -2.59339 1.80979 3.57377 
1 -2.58054 3.67927 -0.294389 
1 -1.7071 3.04747 2.65766 
1 -3.46364 -3.38462 -2.57565 
1 -2.45718 1.36479 -2.76364 
1 1.47488 2.8584 2.5276 
1 0.126624 -3.50189 -1.75434 
1 1.14806 0.993195 -2.90793 
1 0.186565 0.635185 1.80355 
1 1.07057 2.37762 -0.223807 
1 2.47085 0.268113 -0.76362 
1 1.05094 0.122517 -3.59259 
1 2.54667 2.46443 -3.48132 
1 -2.55068 -1.54127 -3.2237 
1 -0.481617 -2.99752 -3.69659 
1 -2.34238 -3.14501 -2.66311 
1 -2.80785 0.815711 3.13345 
1 -1.69314 0.291907 -0.986801 
1 3.03364 0.618115 -3.71372 
1 0.164224 3.6425 1.82323 
1 3.73928 -0.761769 -0.527966 
1 1.7289 1.20791 -1.90805 
1 -2.41616 -1.32249 0.0191146 
1 -2.94433 -3.08987 -1.71523 
1 2.79715 -0.944533 0.935728 
1 0.0603783 -1.45646 -0.326254 
1 0.101752 1.62951 2.38986 
1 1.77058 2.84272 0.853072 
1 -0.923545 -1.75036 0.0711095 
1 -0.890006 0.807775 3.6702 
1 -0.0735051 -0.490182 -3.19471 
1 -0.310226 -3.40759 -0.646526 
1 1.95486 -2.99236 -2.2871 
1 0.155693 -0.502908 -0.750171 
1 1.7605 1.82755 -0.914137 
1 2.61981 1.76016 -1.53274 
1 -1.10389 1.32645 -1.47958 
1 1.11266 -1.20457 -0.250445 
1 -1.8109 0.469635 1.82134 
1 1.17027 3.63245 0.592633 
1 -1.41941 -0.724837 2.94226 
1 2.49165 -2.14914 -1.63047 
1 3.5613 0.904316 -2.39911 
1 2.89846 -1.3894 1.94978 
1 -2.09349 -3.16715 0.514113 
1 2.66691 1.45199 -0.466082 
1 0.979126 -2.64565 -1.96578 
1 3.18989 -2.39363 0.0844222 
1 -0.716147 -2.86921 -1.59742 
1 -0.822736 1.48875 2.87892 
1 3.61791 -0.633403 2.40421 
1 -1.68719 -1.53971 0.741706 
1 2.49251 3.04138 -2.59348 
1 3.41134 -3.12173 1.51262 
1 -0.520957 -1.53139 -2.85973 
1 -1.08509 0.367743 2.62622 
1 -3.29322 -2.27193 -2.87137 
1 -1.44363 -0.162655 -3.48037 
1 -3.12426 -0.707838 -3.47898 
1 -1.25169 3.53449 3.45926 
1 0.970341 3.46318 -1.28564 
1 -3.10806 -0.695031 0.433888 
1 -1.40506 -3.21078 -3.23531 
1 2.28382 -2.42013 -3.15383 
1 0.676033 -0.679279 2.13913 
1 2.5272 0.998525 -2.77072 
1 -2.53092 -2.2097 2.38551 
1 1.82527 -1.28269 -1.55355 
1 -2.79107 2.5683 1.1879 
1 2.00446 -0.704602 -0.634418 
2 1.63908 0.0642413 -0.938237 
2 0.406812 -3.00992 -2.51492 
2 -0.933095 -0.792854 -3.12667 
2 3.62745 -0.692005 0.892986 
2 2.44403 3.42225 1.09036 
2 -3.36855 3.2773 -2.92341 
2 1.82505 3.65065 -2.66765 
2 -0.346592 1.13649 -3.11793 
2 -1.63514 -1.46507 -0.399852 
2 1.77694 -3.3822 1.0308 
2 -1.32761 2.79422 -3.52071 
2 -0.791266 1.86822 -2.16447 
2 0.187849 -2.65129 -1.54539 
2 2.59535 0.160106 3.11549 
2 -3.13168 -1.56782 0.695458 
2 -3.55637 0.418658 3.44622 
2 -2.53883 3.61296 -3.28899 
2 1.28287 -0.666219 -1.97335 
2 1.2639 -0.165559 0.735828 
2 -1.44788 0.0868358 -0.172493 
2 -1.67109 3.56702 0.889301 
2 2.20467 1.06431 -1.1386 
2 2.05294 -0.00829437 -0.0115448 
2 -0.70935 -3.65356 1.60089 
2 2.71602 -2.55686 -2.40286 
2 1.24996 -1.29361 -2.83569 
2 2.95874 -1.08365 3.55457 
2 2.57611 -3.02928 -1.60385 
2 -0.549589 -0.883312 -0.0945406 
2 1.56941 3.07925 -0.0159934 
2 0.593289 2.9554 2.32903 
2 -3.43526 2.02084 -3.65709 
2 1.59858 -2.13693 -1.56439 
2 -1.29576 1.01649 -2.26568 
2 -3.08137 2.1677 -1.32355 
2 -0.87266 0.602764 -1.05698 
2 -3.01819 0.178215 0.494052 
2 -2.39433 0.465973 2.45624 
2 2.71484 -2.07283 -0.624314 
2 3.33221 -1.89123 -1.58924 
2 -1.7546 -1.87562 -3.02195 
2 3.45063 -3.05518 0.62249 
2 -1.48139 -0.288477 2.15773 
2 2.26603 -2.33983 0.43406 
2 2.2173 -1.96025 3.57359 
2 0.874981 -2.11813 -2.67341 
2 -1.27345 0.8953 1.23215 
2 -1.44422 -0.300462 -2.47418 
2 -0.7343 -3.36411 3.01295 
2 2.75208 0.943432 2.16535 
2 0.157063 -1.05303 -2.51259 
2 1.23038 2.96355 -1.93654 
2 -2.65435 0.656632 1.55619 
2 -2.34149 2.75927 -1.36749 
2 -2.59511 -2.90028 -0.170577 
2 -2.43235 1.98325 1.70886 
2 -1.61781 -2.42156 0.699196 
2 -3.4255 -3.66375 1.17542 
2 -1.52253 -3.58953 2.63929 
2 0.0630631 3.54163 -2.54955 
2 -3.50837 -2.58507 -1.23387 
2 -2.30488 -2.66353 3.10636 
2 3.54368 1.53486 -0.363231 
2 0.988389 -1.41006 3.45628 
2 -2.80274 -0.651077 -0.434362 
2 -2.8742 -0.446453 -2.22531 
2 0.336818 2.41097 3.57163 
2 -2.13474 -0.74818 0.62264 
2 0.399298 1.27609 -2.5662 
2 3.59206 -3.01795 2.41316 
2 -0.529771 -2.40538 -2.93883 
2 -0.46054 1.53706 -0.0523081 
2 -3.07058 -3.68052 -1.06164 
2 3.5854 -1.58405 2.45057 
2 -0.220911 -1.92618 -3.66741 
2 -2.02569 -3.15596 1.43194 
2 0.390696 -3.43576 0.928925 
2 1.42818 -2.70884 -0.491334 
2 -2.25258 -0.512849 3.73208 
2 -2.91663 3.56267 2.85948 
2 2.56511 2.28903 -0.808935 
2 -1.78719 1.176 -0.937425 
2 0.0393129 -2.11515 1.23023 
2 -3.45483 -1.54098 -3.37964 
2 0.947824 0.787988 -0.00142383 
2 -3.26715 -1.39078 -0.193032 
2 -0.901081 2.83111 3.05341 
2 -1.28256 -1.45613 1.49084 
2 2.50651 -0.661208 1.76257 
2 -0.457202 -0.5908 -1.41701 
2 -0.856145 1.70304 3.72415 
2 2.53403 -3.21461 1.7215 
2 2.35601 3.29882 2.48947 
2 2.7774 -0.0757934 0.769902 
2 1.60855 0.24638 2.30321 
2 -1.67891 -2.52192 2.40163 
2 -0.952566 -1.45427 2.83181 
2 -0.852338 2.55962 -0.591556 
2 -2.86905 -1.95226 1.575 
2 -3.64133 -2.51785 -3.67408 
