ITEM: TIMESTEP
247
ITEM: NUMBER OF ATOMS
500
ITEM: BOX BOUNDS xy xz yz pp pp pp
-3.7345 3.80172 0.067221
-3.7345 3.7345 0
-3.7345 3.7345 0
ITEM: ATOMS type xu yu zu 
1 0.0338393 -2.18795 -2.2446 
1 -0.923369 -1.78184 -1.792 
1 -0.510614 -1.53367 -2.8613 
1 -1.28892 -2.44973 -2.51347 
2 -1.74694 -1.87702 -3.02214 
1 -3.28479 -1.21393 -2.53947 
1 -1.16159 -2.315 -0.822802 
1 -3.28341 -2.2687 -2.87183 
1 -0.714304 -2.87152 -1.5962 
1 -1.48219 -1.21946 -2.52753 
1 -2.28684 -2.10142 -2.35812 
1 -2.84303 -1.39803 -0.948634 
1 -2.53943 -1.53894 -3.22278 
1 -3.11062 -0.705221 -3.479 
1 -2.33909 -3.14534 -2.65825 
1 -0.113934 -2.36604 -0.785909 
1 -3.18235 -2.00593 -1.79588 
1 -2.41045 -1.12828 -1.92772 
1 -2.64051 -2.44225 -0.934144 
1 -1.85138 -2.73418 -1.61015 
1 -0.58463 -0.606537 -2.30319 
1 -0.875707 -1.25793 -0.837168 
1 -2.23542 -0.547953 -2.84865 
2 -1.62612 -1.47059 -0.404042 
1 -1.86604 -1.69685 -1.24468 
1 -2.94105 -3.09051 -1.70961 
2 -0.523508 -2.40765 -2.93934 
1 -1.33482 -0.736947 -1.60276 
1 -3.46213 -3.38576 -2.56777 
2 -0.921083 -0.794012 -3.12687 
1 -1.99065 -0.722977 -0.796244 
1 -0.458245 -3.17832 -2.5812 
1 -0.0134172 -1.39097 -1.44621 
1 -0.81843 -0.220271 -0.70646 
2 -0.445966 -0.588642 -1.4211 
1 -2.93268 -0.402379 -1.29773 
1 -1.40257 -3.21284 -3.23542 
2 -0.54065 -0.889772 -0.0925017 
2 0.169299 -1.05659 -2.51382 
1 0.168548 -0.502358 -0.759283 
2 -1.43021 -0.303883 -2.4701 
2 -2.79048 -0.651828 -0.436236 
1 -1.09755 -2.13139 -3.54056 
1 0.0716978 -1.45558 -0.335747 
2 -3.44112 -1.53751 -3.3806 
2 -3.25474 -1.39195 -0.191207 
1 -1.62542 -1.18811 -3.58399 
1 -1.83714 -3.16441 -0.631589 
1 -3.41308 -3.08226 -0.538603 
1 -0.30213 -3.41303 -0.651236 
2 -2.85908 -0.444528 -2.22806 
1 -1.43864 -3.52184 -2.17707 
1 -1.96145 -2.24502 -0.118155 
1 -3.0212 -3.09895 -3.49223 
1 -1.42641 -0.16164 -3.48297 
2 -3.6332 -2.51717 -3.67357 
1 0.126075 -3.50459 -1.75287 
2 -2.59235 -2.90156 -0.168721 
1 -0.059218 -0.492394 -3.19616 
2 -3.50253 -2.58119 -1.23097 
1 -2.1253 -2.49303 -3.51305 
1 -2.11104 -0.097788 -1.88393 
2 0.189783 -2.6532 -1.54558 
1 0.301393 -2.46879 -3.21892 
1 0.32237 -3.52218 -3.2509 
1 0.368225 -0.500803 -1.8445 
2 0.409686 -3.01016 -2.51415 
1 0.481283 -1.4192 -3.26935 
1 0.734273 -3.00376 -0.964637 
1 0.811605 -2.21503 -0.141609 
1 0.850771 -1.44276 -2.09337 
1 0.85382 -1.92622 -1.14946 
2 -3.06898 -3.68526 -1.06022 
2 0.884607 -2.11976 -2.67509 
1 0.892724 -0.51037 -2.73232 
1 0.98411 -2.64413 -1.96627 
1 1.12389 -0.617374 -1.13713 
1 1.12515 -1.19955 -0.245892 
1 1.21698 -0.0812764 -0.138102 
2 -0.215241 -1.92964 -3.66815 
1 1.23915 -2.88476 -3.0262 
2 1.26213 -1.29455 -2.83363 
1 -0.478111 -2.99805 -3.69569 
2 1.29436 -0.671265 -1.97325 
1 1.40033 -1.91154 -3.41923 
1 -3.69226 -1.13016 -1.54472 
2 1.43111 -2.70695 -0.492496 
1 -3.1391 -2.21245 -0.0169017 
1 0.954193 -3.72434 -2.37502 
1 1.47417 -0.824228 -3.5266 
1 1.48138 -3.59929 -0.456508 
2 1.60251 -2.13225 -1.56498 
1 1.74791 -1.9261 -2.40945 
1 1.77206 -2.93385 -1.2607 
1 1.83729 -1.27928 -1.554 
1 1.83192 -1.93313 -0.697128 
1 -2.53851 -1.20329 1.26052 
1 -1.83172 -2.30246 1.56178 
1 -0.835097 -2.11654 1.10014 
1 -1.67988 -1.54126 0.742136 
2 0.0423386 -2.11636 1.22965 
2 -2.12558 -0.748448 0.62363 
1 -1.59927 -0.642591 1.34164 
1 -3.59659 -2.3249 0.930055 
2 -1.2776 -1.45689 1.49242 
1 -1.21427 -3.12464 1.10676 
2 -2.86432 -1.95164 1.57699 
2 -1.61488 -2.42357 0.701254 
1 -2.50364 -2.17757 0.778724 
1 -3.09484 -0.696028 0.433295 
1 -0.408265 -3.48968 0.508094 
2 -3.12805 -1.56714 0.699189 
1 -0.687516 -1.05263 0.870575 
1 -2.83094 -2.84785 1.47843 
1 -3.23001 -0.466818 1.52438 
1 -0.186853 -2.9437 1.38603 
1 0.0161101 -1.32864 1.60908 
1 -0.528701 -0.137803 0.345517 
2 -0.707716 -3.65591 1.60212 
1 0.0789281 -0.326151 1.28592 
1 -1.39675 -0.755017 0.0924128 
1 -2.09388 -3.16754 0.518206 
1 -0.914613 -1.75081 0.0711318 
1 -2.41218 -0.0414627 1.0857 
2 -2.02245 -3.15726 1.435 
1 -3.15893 -3.1977 0.486112 
1 -1.10884 -2.83741 0.089601 
1 -0.161332 -2.42793 0.331478 
1 -3.67132 -1.39829 1.39614 
1 0.400618 -0.596994 0.284002 
2 0.391343 -3.43225 0.916497 
1 0.511854 -3.19668 0.0494803 
1 0.414788 -1.57353 0.652662 
1 0.710465 -2.56263 0.882459 
1 0.990378 -1.83685 1.57373 
1 1.03785 -0.862783 1.14054 
1 1.0312 -3.2863 1.50805 
2 -3.4264 -3.66001 1.17789 
2 1.30173 -0.155173 0.744326 
1 -2.40396 -1.3218 0.016413 
1 -2.25969 -0.106399 0.0363053 
1 1.55157 -2.88288 0.364033 
1 1.53309 -1.82348 0.548958 
2 1.77281 -3.3829 1.02936 
1 1.85996 -0.762158 0.425981 
1 -3.31368 1.09054 -3.47645 
1 -3.49827 0.45652 -1.45535 
1 -3.40367 1.80131 -2.74004 
1 -3.08676 1.6205 -0.652564 
1 -3.17506 0.122843 -0.382348 
1 -3.01047 1.38005 -1.78196 
1 -2.88666 0.437757 -2.39645 
1 -2.60963 0.256928 -3.44423 
1 -2.58985 0.769309 -0.944545 
1 -2.43516 1.36467 -2.76436 
1 -2.02402 0.954375 -1.80166 
1 -1.87745 1.04699 -3.63806 
1 -1.88023 0.874792 -0.114141 
2 -1.76468 1.17431 -0.935877 
1 -1.79199 0.480906 -2.72965 
1 -1.67522 0.290688 -0.984705 
2 -1.43063 0.0845399 -0.169527 
2 -1.27349 1.01509 -2.26585 
1 -1.15821 1.7386 -0.53499 
1 -1.09951 1.46911 -2.96491 
1 -1.08035 1.32409 -1.47828 
1 -1.08369 0.270132 -1.86161 
1 -3.65912 0.138665 -3.14796 
1 -0.848954 0.738467 -0.19875 
2 -0.852227 0.598635 -1.05759 
1 -0.720715 0.328465 -2.86083 
2 -0.441351 1.53547 -0.0499029 
1 -0.373808 1.09203 -2.20941 
2 -0.322125 1.13426 -3.11828 
1 -0.204518 1.22299 -0.897585 
1 -0.119739 0.313535 -1.43705 
1 0.138921 0.544814 -3.5442 
1 0.148426 0.443256 -0.236648 
1 0.317051 0.366226 -2.51299 
2 0.420224 1.27627 -2.56087 
1 0.620904 1.12301 -1.71852 
1 0.817716 1.43362 -0.660171 
1 0.855984 0.419579 -0.975794 
1 1.07169 0.121 -3.58781 
1 1.16496 0.996224 -2.91016 
1 1.19763 0.214539 -1.92798 
2 1.65395 0.0678205 -0.935953 
1 1.71307 0.843275 -0.448185 
1 1.75127 1.19917 -1.91295 
1 1.78354 1.82677 -0.919492 
1 1.8092 0.158491 -2.76649 
1 1.88912 1.83617 -2.887 
1 -3.42124 0.551221 1.18991 
1 -2.94769 1.49407 1.19368 
1 -2.89839 0.99814 0.20066 
2 -3.00267 0.177528 0.488614 
2 -2.6398 0.659929 1.55639 
1 -2.09951 0.961185 0.927523 
1 -1.79782 0.469253 1.82201 
1 -1.68199 1.52686 1.7804 
1 -1.43431 0.210583 0.690661 
2 -1.25648 0.890814 1.23312 
1 -1.16892 1.42305 0.511756 
1 -0.844246 0.0884951 1.58135 
1 -0.407119 0.77907 0.861292 
1 0.0488626 1.62993 1.32662 
1 0.207991 0.6307 1.80246 
1 0.359876 1.37065 0.302999 
1 0.60273 0.375558 0.697733 
1 0.991215 1.18483 1.23359 
2 0.964693 0.786969 -0.00465001 
1 1.13092 0.142206 1.60025 
1 1.45072 1.55668 0.28654 
1 1.6806 0.601685 0.613527 
1 1.84181 -2.52816 1.35801 
1 1.9324 -0.840873 -2.52992 
1 1.95054 0.88605 1.69354 
1 1.96153 -2.98805 -2.28721 
1 1.96526 -1.33231 1.37899 
1 1.98918 0.677965 -3.65108 
1 2.01723 -0.702505 -0.63237 
2 2.07314 -0.00726328 -0.00859702 
1 2.08006 -0.139663 1.24492 
1 2.11916 -0.229998 -1.65425 
1 2.29446 -2.41958 -3.15647 
2 2.58221 -3.02509 -1.60287 
1 3.56834 -3.60135 -1.42682 
1 3.1305 -2.74475 -0.978651 
1 3.26106 -2.81489 -3.06463 
1 3.67297 -1.86942 -0.755416 
1 3.19018 -0.270778 -1.28538 
1 3.13936 -3.43598 -0.123128 
1 2.83517 -0.0270272 -2.59554 
2 2.72139 -2.54877 -2.40056 
1 3.76284 -0.288799 -2.18877 
1 2.83982 -0.500781 -0.0372848 
2 3.33821 -1.89049 -1.58508 
1 2.8249 -1.28496 -0.999298 
1 3.23138 -1.89263 -3.57868 
2 2.71993 -2.07128 -0.627372 
1 3.75607 -0.761576 -0.528272 
1 2.52258 -3.66063 -0.996867 
1 3.34014 -0.88956 -3.11433 
1 3.47894 -2.67917 -1.96804 
1 2.30311 -2.81747 -0.329 
1 2.86474 -3.48716 -2.27715 
1 3.23056 -1.82168 -2.51285 
1 2.29897 -3.46848 -3.3029 
1 2.84477 -0.977161 -2.03694 
1 2.472 -0.334458 -3.57651 
1 2.49763 -2.1467 -1.62461 
1 2.37567 -1.3644 -3.29775 
2 2.79615 -0.0804815 0.762893 
2 2.53157 -3.21127 1.72508 
2 2.27134 -2.33967 0.430935 
1 2.5848 -3.06995 0.828302 
1 3.24612 -0.202066 1.5166 
2 3.44917 -3.0555 0.625582 
2 3.63915 -0.692219 0.889375 
2 2.52166 -0.658043 1.76934 
1 3.40956 -3.12148 1.5156 
1 2.80953 -0.948595 0.939479 
1 2.49479 -1.55605 0.0615873 
1 3.19204 -2.39366 0.0863824 
1 2.82253 -2.03665 1.07468 
1 3.53903 -1.41109 0.337026 
1 3.23565 1.63068 -3.50959 
2 3.56637 1.53388 -0.363958 
1 2.4875 0.266603 -0.762608 
1 3.5322 1.36423 -1.2412 
2 2.22334 1.06069 -1.14078 
1 2.68915 1.451 -0.470685 
1 2.77962 0.671574 -1.71852 
1 3.42998 0.655556 -0.490724 
1 2.55143 1.00572 -2.76355 
1 2.64198 1.75456 -1.53872 
1 3.58427 0.911291 -2.39894 
1 3.04941 0.620998 -3.70681 
1 3.59014 0.0513654 0.416839 
1 2.5282 1.55971 0.642008 
1 2.71745 1.69394 1.70472 
1 2.92375 0.740727 1.26131 
1 2.65833 0.594236 0.228844 
1 3.55656 1.19564 0.469103 
1 -3.57163 3.3355 -0.528436 
2 -3.41083 2.02266 -3.66181 
2 -3.33982 3.27951 -2.92363 
1 -3.14692 3.03528 -1.48877 
2 -3.05519 2.16708 -1.32447 
1 -2.84006 2.60115 -3.15928 
1 -2.76362 2.64753 -0.585645 
1 -2.63651 3.36282 -2.37854 
1 -2.63743 2.32255 -2.12107 
1 -2.54964 3.67813 -0.292469 
2 -2.31442 2.75794 -1.36895 
1 -2.18336 3.63415 -1.35638 
1 -2.1749 1.89831 -1.22449 
1 -2.14628 1.89591 -0.158675 
1 -1.86772 2.19302 -3.16017 
1 -1.7424 3.30536 -2.98115 
1 -1.70301 2.78848 -0.704182 
1 -1.70051 2.92648 -1.97902 
1 -1.65601 1.87394 -2.16307 
2 -1.30148 2.79237 -3.52166 
1 -1.08296 3.56485 -1.12793 
1 -0.966237 2.39909 -1.43868 
1 -0.975887 2.52303 -2.70693 
2 -2.50978 3.60783 -3.29021 
2 -0.829435 2.55635 -0.59031 
2 -0.766637 1.86779 -2.16386 
1 -0.618066 3.42271 -3.12194 
1 -0.586958 3.25599 -2.04857 
1 -0.492342 2.50436 -3.68561 
1 -0.403082 3.11787 -0.0956388 
1 -0.0653061 3.0548 -1.13748 
1 -0.0223934 1.98178 -1.67695 
1 -0.0708431 1.95626 -2.81674 
1 0.0102549 2.18703 -0.531898 
2 0.0936005 3.54039 -2.54945 
1 0.41205 2.86791 -2.10602 
1 0.404836 2.90249 -3.17217 
1 0.619284 3.29528 -0.298054 
1 0.925115 2.38235 -1.28857 
1 0.921688 1.9536 -3.38174 
1 0.955819 1.95298 -2.29903 
1 0.999152 3.46204 -1.28479 
1 1.09429 2.38654 -0.224985 
2 1.25913 2.96383 -1.93569 
1 1.37665 3.61049 -3.42868 
1 1.4433 2.80964 -2.771 
2 1.60342 3.08111 -0.0227042 
2 1.85104 3.65847 -2.66927 
1 1.90108 2.38723 -1.8923 
1 1.88534 2.91163 -0.883987 
1 -3.58018 3.04655 1.56749 
1 -3.21888 3.19889 0.472659 
1 -3.13611 2.09365 0.301342 
1 -2.7694 2.56803 1.19061 
1 -2.48033 3.6103 1.23606 
2 -2.41173 1.98197 1.71068 
1 -2.15823 2.96172 0.398061 
1 -1.98612 1.98739 0.862506 
1 -1.78657 2.64293 1.63942 
2 -1.64445 3.56446 0.891558 
1 -1.50353 3.63104 1.77512 
1 -1.22671 2.48315 0.234645 
1 -0.849036 3.16011 1.02874 
1 -1.34389 3.58134 0.0494226 
1 -0.929296 2.09437 1.27821 
1 -0.228981 2.2405 0.498818 
1 -0.0515431 2.62017 1.71787 
1 0.193507 3.63817 1.82827 
1 0.254149 3.16927 0.80736 
1 0.822785 2.25773 0.83413 
1 1.04935 3.09427 1.54956 
1 1.19985 3.63246 0.586007 
1 1.7558 1.8872 1.28568 
1 1.79167 2.83689 0.842946 
1 1.95457 3.51535 -1.8037 
1 1.94324 3.63382 1.77561 
1 2.16566 2.33118 -0.0126414 
1 3.58879 3.15371 -2.24655 
1 2.88456 3.01459 -0.374447 
1 3.57719 2.61025 -3.16655 
1 2.57036 2.46692 -3.48433 
1 3.60836 2.34777 -0.831201 
1 2.51671 3.05007 -2.60023 
1 3.70932 2.19802 -1.85483 
1 3.34575 3.60809 -3.18678 
1 2.84559 2.85115 -1.49439 
1 2.91097 2.0219 -2.53582 
2 2.59191 2.28739 -0.815395 
1 2.96781 3.41869 1.79668 
1 3.63172 2.0375 1.19452 
1 2.26429 3.60868 0.263096 
1 3.30973 3.55002 0.794557 
1 2.80443 2.62285 0.960525 
2 2.46329 3.4172 1.0909 
1 3.27288 2.17876 0.145907 
1 2.24758 2.64449 1.84252 
1 -1.02122 -1.97241 2.1413 
1 -0.568921 -2.25279 3.03176 
1 -0.964312 -3.0269 2.19556 
1 -2.36116 -0.385514 2.18996 
1 -2.52737 -2.21125 2.38681 
1 -1.40881 -0.726623 2.94444 
2 -1.67602 -2.52471 2.4022 
1 -1.89486 -1.34543 2.13712 
1 -1.70357 -1.89235 3.04915 
1 -2.45513 -1.13532 3.1495 
1 -3.03237 -1.3012 2.25147 
1 -2.23652 -3.22971 2.31312 
1 -3.55171 -2.28211 2.0064 
1 -1.44036 -2.8947 3.17763 
2 -1.51974 -3.59016 2.63931 
2 -1.47261 -0.288233 2.16103 
2 -0.945829 -1.45715 2.83382 
1 -0.865079 -0.926315 2.05283 
1 -2.94869 -2.07755 3.4284 
2 -0.731076 -3.36389 3.013 
1 -3.09338 -3.00552 2.90621 
2 -2.30062 -2.66235 3.10874 
1 -0.0750843 -1.30856 2.6903 
1 -2.27517 -3.5271 3.36046 
1 -3.02251 -0.232425 3.06075 
1 -0.182266 -0.206516 2.38743 
1 0.0354064 -3.1504 2.68577 
1 0.00809509 -2.22654 2.12693 
1 -0.521673 -0.163421 3.38493 
1 -3.27789 -3.56232 2.05661 
1 -0.599148 -1.18717 3.60054 
1 -3.64131 -1.27988 3.24418 
1 0.466463 -2.12886 3.2718 
1 0.513276 -0.688697 3.34648 
1 0.688394 -0.685521 2.12498 
1 0.860717 -3.13026 3.38986 
1 0.971321 -3.67999 2.46555 
2 0.999572 -1.42066 3.45582 
1 0.982909 -1.55459 2.58552 
1 0.940623 -2.61207 2.33628 
2 -2.2373 -0.512804 3.73254 
1 1.57104 -2.36904 3.14682 
1 1.77908 -0.148364 3.10586 
1 1.73764 -0.665705 2.17695 
1 1.83834 -1.29089 3.12446 
2 -3.53962 0.419583 3.45035 
1 -3.50605 1.56737 2.9967 
1 -3.21649 0.34322 2.204 
1 -2.79063 0.814191 3.13474 
1 -2.56874 1.80495 3.5764 
1 -2.67586 1.25569 2.1805 
2 -2.38109 0.465307 2.45601 
1 -1.99015 0.113752 3.13952 
1 -1.80504 1.12739 2.77329 
1 -1.06891 0.365293 2.6261 
1 -0.867609 0.805317 3.66916 
1 -0.80265 1.48484 2.87696 
1 -0.72495 1.12246 1.88922 
1 -0.051131 0.721055 2.89342 
1 0.0330138 1.57453 3.58921 
1 0.122853 1.62595 2.38932 
2 -0.832023 1.70058 3.72257 
1 0.837135 0.156852 2.74827 
1 1.01559 1.06677 3.39914 
1 1.07527 1.07929 2.30846 
2 1.63122 0.257363 2.30858 
1 1.85457 1.79793 2.37737 
1 1.96285 1.68288 3.47676 
1 1.94356 -1.89937 2.25189 
1 1.92405 -2.97176 2.34734 
1 2.08288 0.847386 2.78904 
2 3.59282 -1.58127 2.45204 
1 2.7761 -1.71265 2.9484 
2 2.20981 -1.95778 3.57219 
1 2.90311 -1.39216 1.95438 
1 2.65345 -0.692516 2.80961 
1 3.62662 -0.629841 2.4029 
2 3.59315 -3.01396 2.4183 
1 2.83407 -3.42236 2.58971 
2 2.97182 -1.0801 3.55645 
1 3.43085 -0.313309 3.42374 
1 3.49913 -3.2809 3.42379 
1 2.86064 -2.45758 2.13494 
1 3.58248 -2.32714 2.97965 
1 2.58419 -2.72166 3.3325 
1 3.65628 1.23918 1.96886 
1 2.89917 1.54568 2.82544 
2 2.7737 0.949298 2.16347 
2 2.62016 0.158549 3.12005 
1 3.34913 0.532182 2.74034 
1 2.50971 0.118248 2.19144 
1 1.83074 -3.73502 3.10694 
1 -3.22625 3.39289 3.67979 
1 -3.20738 2.15371 2.08534 
1 -3.03345 2.58833 3.04644 
2 -2.88451 3.5671 2.86244 
1 -2.61931 3.06246 2.17114 
1 -2.19115 2.1234 2.55735 
1 -2.16886 2.9269 3.58095 
1 -1.68115 3.04789 2.65743 
1 -1.44935 2.17989 3.32287 
1 -1.22203 3.53284 3.45887 
1 -0.974239 2.34203 2.30219 
2 -0.875455 2.82837 3.05268 
1 -0.672761 3.4165 2.42422 
1 -0.179323 3.48146 3.38425 
1 -0.0420589 2.58466 2.80267 
2 0.361665 2.4102 3.56872 
2 0.617964 2.95669 2.32582 
1 0.773378 3.14457 3.25595 
1 0.934825 2.05832 2.99241 
1 0.914648 2.12145 1.91508 
1 1.49605 2.85417 2.52541 
1 1.6153 2.67051 3.62037 
1 2.42372 2.51899 2.90796 
1 3.70269 3.3223 2.70891 
1 2.84397 3.35323 3.39496 
1 3.42177 2.4423 3.28085 
1 3.25273 2.44599 2.21692 
2 2.38471 3.29911 2.48348 
