ITEM: TIMESTEP
209
ITEM: NUMBER OF ATOMS
500
ITEM: BOX BOUNDS xy xz yz pp pp pp
-3.7345 3.79425 0.059752
-3.7345 3.7345 0
-3.7345 3.7345 0
ITEM: ATOMS type xu yu zu 
1 0.0326146 -2.18724 -2.24417 
1 -0.924559 -1.78017 -1.79219 
1 -0.513172 -1.53299 -2.86068 
1 -1.29016 -2.44891 -2.51319 
2 -1.74868 -1.87658 -3.022 
1 -3.28797 -1.21445 -2.53958 
1 -1.16267 -2.3146 -0.823285 
1 -3.286 -2.2696 -2.87169 
1 -0.714591 -2.87076 -1.59655 
1 -1.4851 -1.21838 -2.52743 
1 -2.28885 -2.10177 -2.35828 
1 -2.84503 -1.3979 -0.948384 
1 -2.54217 -1.53959 -3.22287 
1 -3.11399 -0.70609 -3.47913 
1 -2.33987 -3.14536 -2.65935 
1 -0.11517 -2.36528 -0.786375 
1 -3.18431 -2.00556 -1.79574 
1 -2.41354 -1.1287 -1.92752 
1 -2.64173 -2.4423 -0.934861 
1 -1.85219 -2.73362 -1.61023 
1 -0.5878 -0.605658 -2.30257 
1 -0.877827 -1.25707 -0.836865 
1 -2.23958 -0.548157 -2.84879 
2 -1.6284 -1.46923 -0.40317 
1 -1.86757 -1.69611 -1.24425 
1 -2.94205 -3.0904 -1.71099 
2 -0.524913 -2.40699 -2.93904 
1 -1.33798 -0.736259 -1.60213 
1 -3.46242 -3.38549 -2.5701 
2 -0.92388 -0.793622 -3.12685 
1 -1.9932 -0.722714 -0.795025 
1 -0.458921 -3.17785 -2.58134 
1 -0.0144839 -1.39038 -1.44432 
1 -0.821884 -0.219173 -0.706492 
2 -0.448675 -0.589202 -1.42001 
1 -2.93513 -0.401871 -1.29696 
1 -1.40315 -3.21228 -3.23536 
2 -0.542754 -0.888127 -0.0930967 
2 0.166367 -1.05543 -2.51339 
1 0.16534 -0.50259 -0.756864 
2 -1.43345 -0.302709 -2.47135 
2 -2.79351 -0.6517 -0.435789 
1 -1.09879 -2.13102 -3.54047 
1 0.0688351 -1.45596 -0.333303 
2 -3.44438 -1.53856 -3.38045 
2 -3.25792 -1.39169 -0.191627 
1 -1.62811 -1.18817 -3.5842 
1 -1.83777 -3.16401 -0.631753 
1 -3.41402 -3.08191 -0.53866 
1 -0.303767 -3.41202 -0.650364 
2 -2.86296 -0.445189 -2.22739 
1 -1.43944 -3.52118 -2.1772 
1 -1.96246 -2.24449 -0.118564 
1 -3.02124 -3.09808 -3.49412 
1 -1.43066 -0.161948 -3.48232 
2 -3.6353 -2.5175 -3.67369 
1 0.126327 -3.50377 -1.75322 
2 -2.59312 -2.90121 -0.169179 
1 -0.0625639 -0.491675 -3.19579 
2 -3.50391 -2.58193 -1.23163 
1 -2.12591 -2.49247 -3.5138 
1 -2.11443 -0.0980513 -1.88487 
2 0.189567 -2.65255 -1.54527 
1 0.299719 -2.46845 -3.21855 
1 0.32188 -3.52201 -3.25083 
1 0.364991 -0.499247 -1.84381 
2 0.408958 -3.01021 -2.51441 
1 0.478444 -1.41851 -3.26916 
1 0.732845 -3.00424 -0.963512 
1 0.809428 -2.21672 -0.142479 
1 0.848333 -1.44089 -2.09318 
1 0.852704 -1.92689 -1.15024 
2 -3.06941 -3.68429 -1.06064 
2 0.882031 -2.11941 -2.67405 
1 0.889217 -0.510037 -2.73218 
1 0.9829 -2.64533 -1.96595 
1 1.12023 -0.618351 -1.13757 
1 1.12197 -1.20081 -0.247438 
1 1.21203 -0.0812522 -0.140393 
2 -0.216535 -1.92876 -3.6679 
1 1.23778 -2.88362 -3.02633 
2 1.25887 -1.29444 -2.83427 
1 -0.478876 -2.99782 -3.69595 
2 1.29229 -0.669013 -1.97332 
1 1.39803 -1.91066 -3.42049 
1 -3.69459 -1.12984 -1.5444 
2 1.43035 -2.70777 -0.492013 
1 -3.13985 -2.21195 -0.0175232 
1 0.954832 -3.72419 -2.37525 
1 1.47172 -0.822649 -3.5261 
1 1.48054 -3.59991 -0.455475 
2 1.60152 -2.13392 -1.56454 
1 1.74376 -1.92722 -2.40936 
1 1.77081 -2.9353 -1.26026 
1 1.83407 -1.2804 -1.55373 
1 1.83052 -1.93403 -0.696936 
1 -2.54052 -1.20295 1.26028 
1 -1.83257 -2.30226 1.56157 
1 -0.836009 -2.11576 1.09974 
1 -1.6817 -1.54082 0.742062 
2 0.0416232 -2.11597 1.22968 
2 -2.12769 -0.748378 0.623328 
1 -1.60059 -0.642271 1.3408 
1 -3.59671 -2.32501 0.929506 
2 -1.27884 -1.45659 1.49205 
1 -1.2152 -3.12378 1.10679 
2 -2.865 -1.95195 1.57669 
2 -1.61555 -2.42302 0.700703 
1 -2.50467 -2.17814 0.778504 
1 -3.0981 -0.695824 0.433427 
1 -0.409069 -3.48969 0.50983 
2 -3.12901 -1.56735 0.69832 
1 -0.688167 -1.05225 0.870163 
1 -2.83218 -2.84833 1.47848 
1 -3.23262 -0.466639 1.52451 
1 -0.188432 -2.94251 1.38652 
1 0.0159308 -1.32838 1.609 
1 -0.528676 -0.136691 0.345804 
2 -0.708264 -3.65517 1.60175 
1 0.0768528 -0.325862 1.28805 
1 -1.39849 -0.753764 0.0932224 
1 -2.09391 -3.16745 0.517145 
1 -0.916934 -1.75067 0.0710837 
1 -2.41443 -0.0420675 1.08575 
2 -2.02341 -3.157 1.43398 
1 -3.15885 -3.19794 0.485788 
1 -1.10934 -2.83735 0.08924 
1 -0.162434 -2.42743 0.330951 
1 -3.67228 -1.39874 1.39575 
1 0.400349 -0.597878 0.287118 
2 0.391119 -3.43327 0.919988 
1 0.51034 -3.19867 0.0507591 
1 0.416524 -1.5746 0.653306 
1 0.708649 -2.56415 0.882257 
1 0.989334 -1.83985 1.57477 
1 1.03682 -0.864042 1.14571 
1 1.03399 -3.28451 1.50935 
2 -3.42627 -3.66099 1.17723 
2 1.29221 -0.15742 0.741997 
1 -2.40702 -1.32206 0.017156 
1 -2.26325 -0.105949 0.0367303 
1 1.55052 -2.88339 0.364519 
1 1.53082 -1.82422 0.546941 
2 1.77441 -3.38281 1.02959 
1 1.85465 -0.76252 0.425059 
1 -3.31925 1.09033 -3.47719 
1 -3.50307 0.455657 -1.45476 
1 -3.40987 1.79938 -2.73895 
1 -3.09268 1.61996 -0.652842 
1 -3.1794 0.122314 -0.381094 
1 -3.01644 1.37967 -1.78156 
1 -2.89118 0.437103 -2.39631 
1 -2.61403 0.257034 -3.4445 
1 -2.59486 0.768913 -0.944085 
1 -2.44095 1.36457 -2.76433 
1 -2.0298 0.954268 -1.80187 
1 -1.88318 1.04892 -3.63849 
1 -1.88413 0.875202 -0.114729 
2 -1.77045 1.17458 -0.93656 
1 -1.79678 0.481647 -2.73042 
1 -1.67988 0.290839 -0.985299 
2 -1.43487 0.0851538 -0.17046 
2 -1.27912 1.01547 -2.26583 
1 -1.16391 1.7387 -0.535174 
1 -1.10568 1.46973 -2.96462 
1 -1.08629 1.32481 -1.47873 
1 -1.08798 0.27093 -1.86175 
1 -3.66321 0.137845 -3.14855 
1 -0.852473 0.738634 -0.198027 
2 -0.857638 0.599999 -1.05722 
1 -0.725393 0.328538 -2.86092 
2 -0.446278 1.53621 -0.0506258 
1 -0.379154 1.09237 -2.20947 
2 -0.328494 1.13499 -3.1182 
1 -0.210586 1.22464 -0.898364 
1 -0.124956 0.313552 -1.43532 
1 0.133992 0.546288 -3.54321 
1 0.145564 0.445387 -0.239496 
1 0.311849 0.36609 -2.51231 
2 0.415068 1.27616 -2.56257 
1 0.614766 1.12355 -1.71946 
1 0.812178 1.43213 -0.660854 
1 0.85263 0.418594 -0.979278 
1 1.06611 0.121265 -3.58943 
1 1.16109 0.995039 -2.90917 
1 1.19554 0.216859 -1.93138 
2 1.65035 0.0670935 -0.936686 
1 1.70797 0.842911 -0.448981 
1 1.74574 1.20231 -1.91099 
1 1.77797 1.82725 -0.917816 
1 1.80479 0.154765 -2.77129 
1 1.88314 1.83596 -2.8861 
1 -3.42535 0.551446 1.19093 
1 -2.95184 1.49394 1.19301 
1 -2.9026 0.998039 0.200448 
2 -3.0064 0.177697 0.489987 
2 -2.64325 0.658944 1.55634 
1 -2.10347 0.960536 0.927031 
1 -1.80102 0.469367 1.82192 
1 -1.68739 1.527 1.7799 
1 -1.43599 0.211405 0.689699 
2 -1.26035 0.891692 1.23275 
1 -1.17399 1.42394 0.511106 
1 -0.846841 0.0896703 1.58144 
1 -0.412214 0.781227 0.8614 
1 0.0445671 1.63119 1.32668 
1 0.202473 0.631968 1.80265 
1 0.355183 1.37193 0.302524 
1 0.595472 0.376821 0.696954 
1 0.986259 1.18505 1.23269 
2 0.960643 0.78752 -0.00373493 
1 1.12458 0.142452 1.59898 
1 1.44646 1.55557 0.286902 
1 1.67373 0.59906 0.612389 
1 1.84347 -2.52595 1.35585 
1 1.92949 -0.842865 -2.52921 
1 1.94497 0.885313 1.69224 
1 1.95989 -2.98943 -2.28709 
1 1.96436 -1.33574 1.37719 
1 1.98483 0.676595 -3.65389 
1 2.01408 -0.702878 -0.633086 
2 2.06804 -0.00742177 -0.00947098 
1 2.0733 -0.141201 1.24419 
1 2.11504 -0.230972 -1.65467 
1 2.29188 -2.41947 -3.15546 
2 2.58052 -3.02653 -1.60297 
1 3.56762 -3.6013 -1.42647 
1 3.12885 -2.74481 -0.979417 
1 3.25852 -2.81646 -3.06613 
1 3.67133 -1.86984 -0.756139 
1 3.18523 -0.271309 -1.28587 
1 3.13928 -3.4358 -0.123331 
1 2.83047 -0.028686 -2.59564 
2 2.72028 -2.55131 -2.40102 
1 3.75879 -0.289253 -2.18912 
1 2.83546 -0.499071 -0.0371753 
2 3.3367 -1.89092 -1.58609 
1 2.82218 -1.28606 -0.99917 
1 3.22795 -1.89373 -3.57965 
2 2.71848 -2.07191 -0.626588 
1 3.75179 -0.76177 -0.528171 
1 2.52187 -3.66099 -0.995506 
1 3.33698 -0.890481 -3.11474 
1 3.47824 -2.67983 -1.96899 
1 2.30227 -2.81789 -0.328235 
1 2.86392 -3.48784 -2.27763 
1 3.22742 -1.82302 -2.51399 
1 2.29905 -3.46861 -3.30177 
1 2.84203 -0.978966 -2.03679 
1 2.46928 -0.335092 -3.57863 
1 2.49604 -2.14762 -1.62616 
1 2.37298 -1.36435 -3.29777 
2 2.79167 -0.0790582 0.764932 
2 2.53252 -3.21219 1.7242 
2 2.26996 -2.3395 0.431747 
1 2.58579 -3.06937 0.827814 
1 3.24295 -0.202441 1.51814 
2 3.44967 -3.0552 0.624873 
2 3.63639 -0.692189 0.890509 
2 2.5175 -0.658677 1.76714 
1 3.41036 -3.12154 1.51507 
1 2.80639 -0.947226 0.938332 
1 2.4928 -1.55574 0.0617391 
1 3.19138 -2.39347 0.0858568 
1 2.8234 -2.03545 1.07332 
1 3.53691 -1.41104 0.337765 
1 3.22932 1.62987 -3.50977 
2 3.56081 1.53399 -0.363591 
1 2.4834 0.267278 -0.763005 
1 3.52615 1.36307 -1.24107 
2 2.21949 1.06236 -1.13994 
1 2.6838 1.4513 -0.469157 
1 2.77278 0.6723 -1.71946 
1 3.42556 0.655392 -0.489426 
1 2.54477 1.00363 -2.76525 
1 2.63688 1.7568 -1.53665 
1 3.57834 0.908861 -2.39916 
1 3.04557 0.619932 -3.70818 
1 3.5859 0.0513523 0.418298 
1 2.52368 1.55945 0.643497 
1 2.71186 1.69283 1.70636 
1 2.91935 0.739956 1.26196 
1 2.65273 0.594181 0.229413 
1 3.55192 1.19495 0.469166 
1 -3.57877 3.33542 -0.528614 
2 -3.41733 2.02202 -3.66054 
2 -3.34718 3.27876 -2.92356 
1 -3.15393 3.03535 -1.48815 
2 -3.06205 2.16701 -1.32432 
1 -2.84687 2.60039 -3.15867 
1 -2.77033 2.64735 -0.58533 
1 -2.64429 3.36307 -2.37834 
1 -2.64437 2.32267 -2.12065 
1 -2.55746 3.67838 -0.29293 
2 -2.32134 2.75815 -1.3686 
1 -2.19131 3.63466 -1.35677 
1 -2.18132 1.89847 -1.22462 
1 -2.15232 1.89577 -0.158992 
1 -1.87403 2.19316 -3.16027 
1 -1.74981 3.30544 -2.9811 
1 -1.70934 2.78832 -0.704412 
1 -1.70773 2.9269 -1.97888 
1 -1.66256 1.87436 -2.16306 
2 -1.30795 2.79287 -3.5214 
1 -1.0911 3.56594 -1.12843 
1 -0.972764 2.39973 -1.4391 
1 -0.982398 2.5235 -2.7066 
2 -2.51726 3.6092 -3.28922 
2 -0.834925 2.55649 -0.590654 
2 -0.77292 1.86788 -2.16407 
1 -0.625396 3.4232 -3.12221 
1 -0.594561 3.25722 -2.04853 
1 -0.498652 2.50499 -3.68518 
1 -0.409662 3.11843 -0.0952668 
1 -0.0731601 3.05607 -1.13712 
1 -0.0288224 1.98247 -1.67706 
1 -0.0770271 1.95665 -2.8164 
1 0.00566665 2.18812 -0.532066 
2 0.0859946 3.54072 -2.54933 
1 0.404725 2.86884 -2.10513 
1 0.398694 2.90265 -3.17134 
1 0.613103 3.29344 -0.297961 
1 0.918908 2.38235 -1.28824 
1 0.916107 1.95343 -3.38145 
1 0.949048 1.95399 -2.29914 
1 0.992146 3.46239 -1.28518 
1 1.08858 2.38494 -0.224727 
2 1.25211 2.96362 -1.93596 
1 1.36927 3.61122 -3.42837 
1 1.43751 2.8097 -2.77107 
2 1.59589 3.08061 -0.0206551 
2 1.84458 3.65611 -2.66876 
1 1.89424 2.38717 -1.89118 
1 1.87857 2.91173 -0.882253 
1 -3.58727 3.04441 1.56565 
1 -3.22572 3.19814 0.472112 
1 -3.14235 2.09296 0.301143 
1 -2.77473 2.5679 1.18983 
1 -2.48767 3.61043 1.23459 
2 -2.41682 1.9823 1.71028 
1 -2.16477 2.96158 0.396845 
1 -1.9915 1.9872 0.862028 
1 -1.79163 2.64264 1.63889 
2 -1.65141 3.56485 0.890971 
1 -1.51146 3.63136 1.77485 
1 -1.23274 2.48353 0.234343 
1 -0.856481 3.15974 1.02949 
1 -1.35077 3.58157 0.0487465 
1 -0.934207 2.09403 1.27845 
1 -0.23491 2.24044 0.498375 
1 -0.0573389 2.62079 1.71886 
1 0.18622 3.63947 1.8264 
1 0.246835 3.16883 0.807182 
1 0.818144 2.25858 0.83382 
1 1.04187 3.09528 1.55007 
1 1.19249 3.63225 0.587615 
1 1.75075 1.88766 1.28596 
1 1.78683 2.83873 0.845849 
1 1.94779 3.5145 -1.80304 
1 1.9372 3.63221 1.77518 
1 2.15954 2.33177 -0.0100862 
1 3.5822 3.15434 -2.24571 
1 2.87825 3.01477 -0.372791 
1 3.57053 2.6084 -3.16384 
1 2.56431 2.46668 -3.48355 
1 3.60141 2.34693 -0.830643 
1 2.5107 3.04772 -2.59827 
1 3.70221 2.19786 -1.85452 
1 3.33767 3.60584 -3.18727 
1 2.83928 2.85209 -1.49274 
1 2.90454 2.01866 -2.53538 
2 2.58564 2.28806 -0.813064 
1 2.96234 3.4185 1.79809 
1 3.62559 2.03482 1.19473 
1 2.25692 3.60923 0.263465 
1 3.30346 3.5505 0.794325 
1 2.79971 2.62317 0.962092 
2 2.45888 3.41839 1.09104 
1 3.26677 2.17851 0.146766 
1 -1.02186 -1.97198 2.14097 
1 -0.56975 -2.25199 3.0319 
1 -0.965529 -3.02655 2.19556 
1 -2.36344 -0.385529 2.19015 
1 -2.52816 -2.21087 2.38672 
1 -1.41145 -0.726014 2.94395 
2 -1.67672 -2.52388 2.40213 
1 -1.8961 -1.34509 2.13652 
1 -1.70443 -1.89183 3.04882 
1 -2.45743 -1.13594 3.14944 
1 -3.03404 -1.30146 2.25125 
1 -2.23652 -3.22883 2.31204 
1 -3.55238 -2.28219 2.00625 
1 -1.44117 -2.89431 3.17744 
2 -1.52065 -3.58992 2.63926 
2 -1.47471 -0.288195 2.16025 
2 -0.947451 -1.45618 2.83331 
1 -0.866389 -0.925913 2.05223 
1 -2.95047 -2.07861 3.42783 
2 -0.731989 -3.36387 3.01299 
1 -3.09397 -3.00632 2.90434 
2 -2.30169 -2.66275 3.10828 
1 -0.0768236 -1.30851 2.69033 
1 -2.27569 -3.52779 3.35895 
1 -3.02476 -0.232802 3.0611 
1 -0.186128 -0.205176 2.38883 
1 0.0340046 -3.15054 2.68483 
1 0.00769367 -2.22597 2.12722 
1 -0.526079 -0.162392 3.38604 
1 -3.27801 -3.56461 2.05564 
1 -0.601453 -1.18675 3.60057 
1 -3.64363 -1.2814 3.24403 
1 0.466081 -2.12805 3.27276 
1 0.509033 -0.687582 3.34667 
1 0.684989 -0.684004 2.12866 
1 0.858816 -3.13025 3.38975 
1 0.970215 -3.6804 2.46555 
2 0.9968 -1.41805 3.45615 
1 0.982087 -1.55403 2.58592 
1 0.939218 -2.61227 2.33965 
2 -2.24112 -0.512759 3.73235 
1 1.57325 -2.37221 3.14799 
1 1.77419 -0.150705 3.10427 
1 1.73441 -0.670075 2.17591 
1 1.83723 -1.29257 3.12698 
1 1.83009 -3.73082 3.10674 
2 -3.54364 0.419066 3.44923 
1 -3.51149 1.56815 2.99683 
1 -3.21999 0.342627 2.20464 
1 -2.79499 0.814724 3.1344 
1 -2.57527 1.80632 3.57574 
1 -2.68046 1.25531 2.17982 
2 -2.38446 0.46543 2.45612 
1 -1.99344 0.114438 3.14002 
1 -1.80947 1.12785 2.77285 
1 -1.07285 0.366073 2.62623 
1 -0.873324 0.805919 3.6695 
1 -0.807641 1.4858 2.87751 
1 -0.730037 1.12403 1.88953 
1 -0.0559457 0.722453 2.89433 
1 0.0270225 1.5753 3.58999 
1 0.117531 1.62697 2.38939 
2 -0.838174 1.70121 3.72297 
1 0.832612 0.15916 2.74985 
1 1.01011 1.06801 3.39911 
1 1.06944 1.08013 2.30747 
2 1.62549 0.25455 2.30712 
1 1.8484 1.79802 2.37782 
1 1.9571 1.68265 3.47723 
1 1.94191 -1.89881 2.25247 
1 1.92289 -2.97128 2.34365 
1 2.07561 0.846608 2.78696 
2 3.59077 -1.58215 2.45153 
1 2.7751 -1.71322 2.94659 
2 2.21143 -1.95879 3.57244 
1 2.90177 -1.39094 1.95324 
1 2.65056 -0.69273 2.80904 
1 3.62468 -0.631004 2.40329 
2 3.59351 -3.01534 2.41697 
1 2.83298 -3.42059 2.58954 
2 2.96887 -1.08115 3.55567 
1 3.42843 -0.314689 3.42336 
1 3.49971 -3.2826 3.42369 
1 2.85963 -2.45683 2.13232 
1 3.58075 -2.32886 2.97903 
1 2.58584 -2.7227 3.33531 
1 3.65126 1.23829 1.96988 
1 2.89354 1.54353 2.82695 
2 2.76835 0.947825 2.16397 
2 2.61403 0.158989 3.11884 
1 3.34405 0.529403 2.73891 
1 2.50354 0.117069 2.19025 
1 -3.23265 3.39229 3.68023 
1 -3.21243 2.15298 2.08428 
1 -3.0399 2.58961 3.0444 
2 -2.89265 3.56561 2.8616 
1 -2.62459 3.06228 2.16963 
1 -2.19696 2.1233 2.55712 
1 -2.1759 2.92661 3.58106 
1 -1.68747 3.0477 2.65753 
1 -1.45538 2.18035 3.32296 
1 -1.22947 3.53334 3.45901 
1 -0.980188 2.34234 2.30233 
2 -0.881725 2.82926 3.05292 
1 -0.679714 3.417 2.42361 
1 -0.186403 3.48202 3.38384 
1 -0.0485359 2.58499 2.80341 
2 0.355551 2.41042 3.56951 
2 0.61172 2.95658 2.32649 
1 0.766763 3.14466 3.25675 
1 0.928883 2.05955 2.99255 
1 0.909442 2.1222 1.91503 
1 1.49081 2.85544 2.52593 
1 1.60973 2.67126 3.62035 
1 2.41834 2.5176 2.90843 
1 3.69397 3.32307 2.7095 
1 2.2431 2.64369 1.84417 
1 2.83445 3.35381 3.39418 
1 3.4161 2.44328 3.28278 
1 3.24809 2.44457 2.21837 
2 2.3776 3.29929 2.48531 
