ITEM: TIMESTEP
420
ITEM: NUMBER OF ATOMS
500
ITEM: BOX BOUNDS xy xz yz pp pp pp
-3.7345 3.82413 0.089628
-3.7345 3.7345 0
-3.7345 3.7345 0
ITEM: ATOMS type xu yu zu 
1 3.24792 -1.8867 -3.57293 
1 -1.61562 -1.18829 -3.58206 
1 -2.94161 -2.07255 3.43234 
1 2.83367 -1.27972 -1.0007 
1 0.951179 2.05169 2.99142 
1 3.26214 2.45495 2.2089 
1 2.66241 -0.689905 2.8136 
1 -0.563437 3.24908 -2.04829 
1 2.80384 0.669588 -1.7151 
1 -3.06835 1.62305 -0.650904 
1 0.873032 -3.12892 3.39353 
1 0.739323 -3.00303 -0.971654 
1 -1.21007 2.48128 0.235251 
1 -1.02092 -1.97377 2.14279 
1 -2.59419 0.258184 -3.44314 
1 -2.53252 -1.20451 1.26139 
1 -1.43764 -2.89713 3.17932 
1 -0.704324 0.327964 -2.86088 
1 1.03536 -0.856528 1.10445 
1 0.380385 -0.501867 -1.84911 
1 1.39834 3.60496 -3.43007 
1 3.62837 2.34982 -0.832965 
1 -1.97318 1.98841 0.86436 
1 -1.39199 -0.762037 0.0860123 
1 3.72883 2.19481 -1.85518 
1 2.90284 3.01491 -0.380338 
1 1.15379 0.141675 1.60431 
1 1.55599 -2.3505 3.13917 
1 -0.596162 3.41976 -3.1198 
1 3.20827 -0.268193 -1.28145 
1 0.820967 -2.20427 -0.136583 
1 -2.09033 0.963879 0.930264 
1 -0.0129439 -1.38729 -1.46064 
1 1.09278 1.07404 2.31142 
1 1.90718 1.83882 -2.89229 
1 1.88252 -0.756268 0.429482 
1 2.50016 -1.55581 0.0583591 
1 1.76372 -1.92385 -2.40864 
1 -3.20961 0.345831 2.20208 
1 -0.827305 3.16234 1.02481 
1 -1.8306 -2.3025 1.56312 
1 -3.17467 -2.00743 -1.79684 
1 -2.66417 1.257 2.18336 
1 -3.30018 1.09179 -3.47405 
1 2.73363 1.70051 1.6961 
1 0.85124 -1.92487 -1.14747 
1 0.531105 -0.697393 3.34389 
1 -0.865639 -0.926531 2.05753 
1 3.77718 -0.287417 -2.18617 
1 3.25481 -0.201258 1.51029 
1 -0.838552 0.0840804 1.58033 
1 0.520213 -3.18537 0.0403681 
1 -1.13944 1.73897 -0.535194 
1 -0.356144 1.09094 -2.21056 
1 -2.21933 -0.546818 -2.84922 
1 3.43933 -0.306652 3.42504 
1 -0.92038 -1.7912 -1.79051 
1 3.25112 1.63596 -3.51042 
1 0.0438271 -3.1479 2.69703 
1 -1.28416 -2.45504 -2.51387 
1 -3.21116 3.39516 3.67757 
1 -1.0702 0.26639 -1.86157 
1 -3.27372 -1.2115 -2.53926 
1 1.97163 3.5203 -1.80607 
1 -0.959166 2.33858 2.3021 
1 1.9063 2.91097 -0.891988 
1 0.928763 2.11729 1.9148 
1 -2.15526 1.89656 -1.22484 
1 1.03634 1.05962 3.39785 
1 1.96872 0.890539 1.69925 
1 2.92932 2.04015 -2.5389 
1 -0.157878 -2.43389 0.335769 
1 -0.957456 -3.02873 2.197 
1 3.67646 -1.86612 -0.749874 
1 1.769 1.8856 1.28385 
1 1.72818 0.84482 -0.446526 
1 3.32604 3.5484 0.794744 
1 -2.6071 3.06245 2.17932 
1 2.53324 0.125137 2.1978 
1 1.20435 0.210777 -1.91641 
1 -2.12691 1.89585 -0.15826 
1 0.155506 0.437221 -0.225174 
1 -0.166727 -0.214364 2.37804 
1 -1.32482 3.58019 0.053289 
1 -1.7748 2.64434 1.64177 
1 3.36929 3.61907 -3.18306 
1 -1.85693 1.04124 -3.63736 
1 2.25555 2.65006 1.83405 
1 -0.504261 -0.169815 3.37722 
1 -0.0414783 3.04707 -1.13833 
1 -0.948352 2.39569 -1.43815 
1 -1.20984 -3.12868 1.1077 
1 3.49484 -3.27127 3.42578 
1 0.862961 -1.44619 -2.09204 
1 3.35164 -0.884556 -3.11253 
1 3.60451 0.0499719 0.410321 
1 -3.5594 3.05835 1.5762 
1 0.275109 3.17336 0.812909 
1 -0.024698 2.58168 2.8007 
1 -0.0516776 1.95421 -2.81804 
1 -2.14761 2.92687 3.57997 
1 -3.55057 3.33426 -0.526304 
1 2.28574 3.60768 0.261355 
1 -2.81966 2.60607 -3.16194 
1 -2.50185 -2.17377 0.779489 
1 -1.67986 2.9233 -1.98099 
1 2.85588 -0.965061 -2.0389 
1 2.98005 3.42061 1.78848 
1 -1.15913 -2.31671 -0.820002 
1 1.8319 -1.92888 -0.697816 
1 2.30453 -2.81599 -0.335021 
1 1.6265 2.66338 3.62135 
1 3.24341 -1.81454 -2.50541 
1 2.52503 -3.65893 -1.00307 
1 2.86375 -2.45937 2.14822 
1 2.8108 -2.04154 1.08276 
1 0.791676 3.14468 3.2512 
1 -0.473802 2.50006 -3.68624 
1 -0.709972 1.11659 1.88598 
1 -3.02226 -3.10557 -3.48056 
1 -3.68545 -1.13261 -1.54589 
1 -1.79207 1.12475 2.77331 
1 -3.6719 -1.39626 1.39988 
1 2.29702 -3.46711 -3.30924 
1 -0.178388 -2.95293 1.38368 
1 0.719951 -2.55333 0.883119 
1 0.37404 1.36657 0.304908 
1 -1.07865 1.46662 -2.96728 
1 2.3861 -1.36458 -3.30219 
1 -0.455698 -3.18105 -2.57992 
1 -1.47129 -1.22438 -2.52754 
1 -2.82721 -2.84556 1.4768 
1 -2.39959 -1.12734 -1.9296 
1 2.18408 2.32944 -0.0232452 
1 0.00509047 -1.33358 1.60957 
1 0.625993 0.368854 0.701357 
1 3.55133 1.36675 -1.2395 
1 1.94364 -0.836509 -2.53447 
1 -2.87057 0.438784 -2.39634 
1 -2.93892 1.49493 1.19696 
1 -3.22307 -0.467866 1.52367 
1 3.57051 -3.60364 -1.42759 
1 0.834127 2.25539 0.834941 
1 1.40784 -1.91907 -3.41179 
1 -2.6356 -2.44159 -0.929843 
1 -2.74334 2.64774 -0.587529 
1 2.57706 -3.07249 0.83421 
1 -1.636 1.8703 -2.16416 
1 1.24469 -2.89272 -3.02285 
1 2.53904 1.5599 0.635365 
1 1.95764 3.64417 1.77764 
1 0.393094 -1.56805 0.648051 
1 -0.535579 -0.140612 0.341593 
1 -3.11705 2.09711 0.302253 
1 -2.61344 3.36055 -2.37875 
1 0.94953 -3.72721 -2.37365 
1 -0.212103 2.2418 0.50188 
1 -3.54957 -2.28197 2.00787 
1 1.94607 -1.90051 2.24641 
1 -1.68507 2.78876 -0.703815 
1 3.36479 0.549008 2.74978 
1 3.65008 2.05251 1.19356 
1 -2.61663 2.32048 -2.12373 
1 1.79598 -0.135002 3.11431 
1 -3.15989 0.124571 -0.388834 
1 -0.00402286 1.9794 -1.676 
1 3.29026 2.17937 0.142642 
1 3.73262 3.31829 2.70531 
1 1.01215 -3.29769 1.50043 
1 0.434176 2.86253 -2.10968 
1 1.45863 2.80882 -2.76973 
1 0.0223736 2.18197 -0.529149 
1 3.59738 2.61966 -3.18226 
1 -2.5737 0.772507 -0.946847 
1 1.00547 1.18355 1.23596 
1 -3.27591 -3.55125 2.0624 
1 -3.19572 2.15714 2.09128 
1 1.92967 -2.97378 2.36838 
1 2.86988 -3.48476 -2.27268 
1 3.44388 0.654874 -0.494298 
1 3.27331 -2.80676 -3.05576 
1 -2.27324 -3.52446 3.36914 
1 -2.17531 2.1229 2.55942 
1 2.81395 2.62186 0.952518 
1 1.77633 -2.9267 -1.26326 
1 -1.43355 0.207173 0.694391 
1 3.67037 1.2437 1.96295 
1 -1.10846 -2.83784 0.0917637 
1 -3.19908 3.20296 0.476505 
1 -2.88835 0.99844 0.201871 
1 0.00685046 -2.23238 2.12731 
1 1.13542 -0.616715 -1.13587 
1 2.93664 0.743879 1.25935 
1 -2.35667 -0.385347 2.18877 
1 1.46203 1.56267 0.28338 
1 -1.89281 -1.34675 2.14033 
1 1.98701 1.68467 3.47537 
1 3.54527 -1.41179 0.333513 
1 0.835082 1.43876 -0.65768 
1 -2.44738 -1.13263 3.15039 
1 3.43677 2.43737 3.26966 
1 -0.831324 -2.11978 1.10315 
1 -1.84902 -2.73871 -1.6093 
1 -3.01503 -0.230086 3.05936 
1 0.491545 -1.42251 -3.27023 
1 3.13764 -2.74446 -0.97433 
1 0.864396 0.421668 -0.963254 
1 -2.40744 -0.0394227 1.08497 
1 -3.12797 3.03199 -1.49177 
1 0.155667 0.538416 -3.55078 
1 2.10962 0.852299 2.79816 
1 1.48167 -0.832735 -3.52963 
1 -0.590973 -1.19038 3.60089 
1 0.336108 0.367977 -2.51856 
1 -0.868132 -1.26218 -0.838 
1 0.0794021 -0.3312 1.27258 
1 3.13947 -3.43566 -0.122609 
1 -1.4792 3.62966 1.77689 
1 2.48133 -0.332097 -3.56876 
1 3.48148 -2.67596 -1.96187 
1 1.07163 3.08949 1.549 
1 0.634552 3.30376 -0.297389 
1 -3.60113 -2.32411 0.933155 
1 0.979379 -3.67494 2.46728 
1 -1.43496 -3.52647 -2.17637 
1 1.70484 0.615258 0.617701 
1 -3.49105 1.56277 2.99562 
1 3.58903 -2.3179 2.98305 
1 -1.15662 1.41966 0.513877 
1 -0.573028 -0.609631 -2.30717 
1 2.43697 2.52867 2.90589 
1 -1.43207 2.17447 3.32354 
1 1.87296 1.79848 2.37567 
1 0.463715 -2.13432 3.26601 
1 2.85527 -0.507241 -0.0399209 
1 -1.32232 -0.740685 -1.60554 
1 2.8411 -3.43001 2.58959 
1 -1.86207 -1.70104 -1.24767 
1 2.77732 -1.70953 2.95823 
1 -3.64238 0.140348 -3.14494 
1 2.13242 -0.225056 -1.65446 
1 1.23242 -0.0808794 -0.128439 
1 2.87932 3.35203 3.39794 
1 -1.09345 -2.13402 -3.53883 
1 0.0410051 -2.18952 -2.24581 
1 -3.6318 -1.27273 3.24391 
1 -3.40818 -3.08566 -0.54013 
1 -1.98315 -0.725149 -0.803621 
1 -2.83745 -1.39926 -0.949759 
1 -2.45935 3.60984 1.24418 
1 0.0600387 1.62473 1.32537 
1 -0.185688 1.21731 -0.893883 
1 0.309424 -2.47052 -3.22012 
1 0.988422 -1.81637 1.56734 
1 -0.392549 0.771166 0.858537 
1 -1.87101 0.871951 -0.111274 
1 -3.13925 -2.21628 -0.0135435 
1 -3.16197 -3.19603 0.487143 
1 1.8355 -3.75627 3.10949 
1 1.48466 -3.59711 -0.462224 
1 0.852625 0.141115 2.73526 
1 -1.77558 0.477513 -2.72797 
1 -1.70092 -1.89499 3.05144 
1 -1.83524 -3.16699 -0.630415 
1 0.324264 -3.52356 -3.25147 
1 -2.13957 2.96249 0.405306 
1 0.639766 1.12264 -1.7141 
1 0.948742 -2.60861 2.31388 
1 1.82597 -2.5413 1.37068 
1 -2.2484 -0.110516 0.0337394 
1 -2.92592 -0.405682 -1.30255 
1 1.74682 -0.641924 2.18456 
1 2.85499 -0.0157893 -2.59828 
1 -3.0149 2.58158 3.05695 
1 -1.84973 2.19193 -3.15904 
1 2.91571 1.55889 2.81495 
1 0.978156 1.94851 -2.29851 
1 -0.03312 0.713289 2.88672 
1 -0.569525 -2.25525 3.032 
1 -0.917246 2.09623 1.27685 
1 -0.0719103 -1.30917 2.68904 
1 -0.110634 -2.37165 -0.781285 
1 0.423029 2.9011 -3.17571 
1 3.56908 1.19906 0.471148 
1 0.935794 1.95052 -3.38215 
1 0.0524649 1.5701 3.58321 
1 -0.103166 0.316714 -1.44574 
1 -0.808793 -0.225371 -0.707406 
1 -2.12442 -2.49695 -3.50752 
1 -0.655366 3.41261 2.42968 
1 -2.27847 -2.10111 -2.356 
1 -0.0365438 2.61652 1.71517 
1 -0.956957 2.52028 -2.70824 
1 -0.840765 0.738727 -0.202928 
1 1.92324 2.38777 -1.89715 
1 -1.95908 -2.24818 -0.114943 
1 1.55617 -2.88019 0.36109 
1 -3.02719 -1.30002 2.25251 
1 0.392778 -0.592497 0.265274 
1 -1.97943 0.112994 3.13696 
1 -1.72026 3.30472 -2.9821 
1 2.10637 -0.129556 1.24902 
1 3.60691 3.14747 -2.25123 
1 1.82637 0.17009 -2.7481 
1 -2.23739 -3.23316 2.31803 
1 -2.15861 3.63057 -1.35479 
1 -0.690446 -1.05221 0.870486 
1 0.906053 -0.512495 -2.73309 
1 2.57259 -2.71786 3.319 
1 -0.385054 3.11452 -0.0966026 
1 -3.48177 0.459546 -1.45727 
1 -0.159315 3.47787 3.38743 
1 -3.40922 0.549394 1.18529 
1 -1.05744 3.55911 -1.1253 
1 -0.405255 -3.49001 0.49771 
1 2.00394 0.684995 -3.63812 
1 1.83923 -1.28209 3.11061 
1 -1.667 1.52667 1.78169 
1 0.943809 2.37996 -1.29047 
1 1.54439 -1.81991 0.559864 
1 -2.99231 1.38033 -1.78498 
1 -3.38647 1.81105 -2.74596 
1 -3.09106 -3.00223 2.91744 
1 -1.59796 -0.643656 1.34613 
1 -2.0051 0.953347 -1.80167 
1 0.981114 -1.55554 2.5838 
1 2.67733 0.593612 0.226969 
1 2.86432 2.84928 -1.50086 
1 1.96225 -1.30818 1.38856 
1 -2.09914 -0.0985296 -1.88064 
1 -2.55002 1.79853 3.58165 
1 -2.52535 3.676 -0.289659 
1 -1.66396 3.04819 2.6572 
1 -3.46207 -3.38805 -2.55433 
1 -2.41924 1.36363 -2.76623 
1 1.50842 2.84881 2.52353 
1 0.123714 -3.50954 -1.75064 
1 1.18007 0.999571 -2.91093 
1 0.224697 0.623601 1.79732 
1 1.11034 2.39448 -0.227087 
1 2.50015 0.265214 -0.762429 
1 1.0916 0.119244 -3.5796 
1 2.58672 2.47353 -3.48803 
1 -2.52822 -1.53648 -3.2204 
1 -0.474529 -2.9984 -3.69422 
1 -2.3361 -3.14636 -2.65053 
1 -2.77717 0.813156 3.13708 
1 -1.66105 0.289918 -0.982165 
1 3.0624 0.624309 -3.69562 
1 0.214049 3.63074 1.84644 
1 3.77224 -0.761975 -0.528179 
1 1.76966 1.18951 -1.91667 
1 -2.39168 -1.32026 0.0121413 
1 -2.93883 -3.09169 -1.70003 
1 2.81967 -0.955531 0.944394 
1 0.0846025 -1.45215 -0.353626 
1 0.137805 1.62126 2.38767 
1 1.80137 2.82926 0.829569 
1 -0.903804 -1.75224 0.0716959 
1 -0.848004 0.800333 3.6666 
1 -0.0465306 -0.495424 -3.19901 
1 -0.294778 -3.41947 -0.655536 
1 1.97049 -2.98184 -2.28744 
1 0.178146 -0.496995 -0.773068 
1 1.80178 1.8253 -0.926059 
1 2.65986 1.74867 -1.54687 
1 -1.06121 1.32035 -1.4774 
1 1.13757 -1.19143 -0.234613 
1 -1.7901 0.469214 1.82291 
1 1.22068 3.6331 0.576741 
1 -1.40227 -0.728589 2.94846 
1 2.50145 -2.14323 -1.61561 
1 3.60487 0.920382 -2.39885 
1 2.90337 -1.39585 1.96066 
1 -2.09544 -3.16771 0.52483 
1 2.70693 1.45048 -0.475299 
1 0.988353 -2.64322 -1.96704 
1 3.18968 -2.39369 0.0892076 
1 -0.714917 -2.87657 -1.59342 
1 -0.787796 1.47809 2.87365 
1 3.63152 -0.625133 2.40114 
1 -1.67357 -1.54368 0.742021 
1 2.53096 3.06327 -2.6081 
1 3.40489 -3.12141 1.52019 
1 -0.500774 -1.53653 -2.86296 
1 -1.05503 0.361411 2.62433 
1 -3.27205 -2.26427 -2.87242 
1 -1.40989 -0.160765 -3.48723 
1 -3.09671 -0.701935 -3.47893 
1 -1.20026 3.52938 3.4588 
1 1.01825 3.4585 -1.28226 
1 -3.08403 -0.698365 0.432645 
1 -1.39977 -3.21619 -3.23524 
1 2.30706 -2.4189 -3.16077 
1 0.699895 -0.696621 2.09703 
1 2.57272 1.01741 -2.75403 
1 -2.52533 -2.2131 2.38917 
1 1.85065 -1.2739 -1.55579 
1 -2.75674 2.56858 1.19531 
1 2.02726 -0.699888 -0.630465 
2 1.66402 0.0700529 -0.934325 
2 0.411757 -3.01088 -2.51328 
2 -0.91089 -0.796129 -3.12706 
2 3.6476 -0.693479 0.884783 
2 2.46913 3.41169 1.0901 
2 -3.31912 3.2835 -2.92383 
2 1.86734 3.67233 -2.67141 
2 -0.300014 1.13046 -3.12005 
2 -1.61734 -1.4793 -0.408758 
2 1.76155 -3.38381 1.02779 
2 -1.28313 2.78847 -3.52277 
2 -0.747549 1.86671 -2.16347 
2 0.187459 -2.65695 -1.5464 
2 2.642 0.159355 3.12705 
2 -3.12877 -1.56657 0.705458 
2 -3.52654 0.421803 3.45476 
2 -2.49057 3.59629 -3.2924 
2 1.30572 -0.673475 -1.9732 
2 1.33909 -0.14277 0.753866 
2 -1.41661 0.0813273 -0.16554 
2 -1.62522 3.56309 0.895218 
2 2.23953 1.05754 -1.1425 
2 2.08957 -0.00435631 -0.00798698 
2 -0.705095 -3.66093 1.60572 
2 2.72608 -2.5358 -2.39713 
2 1.27393 -1.29663 -2.83164 
2 2.9853 -1.07487 3.55913 
2 2.58947 -3.01839 -1.60133 
2 -0.531648 -0.898112 -0.0879264 
2 1.62742 3.08332 -0.0324323 
2 0.635706 2.95366 2.32507 
2 -3.39298 2.02464 -3.66856 
2 1.60195 -2.12371 -1.56584 
2 -1.25466 1.01313 -2.26716 
2 -3.03464 2.16522 -1.32604 
2 -0.835303 0.592631 -1.05955 
2 -2.99104 0.175742 0.481872 
2 -2.37413 0.464154 2.4556 
2 2.72128 -2.06877 -0.633364 
2 3.34137 -1.88914 -1.57818 
2 -1.74069 -1.87986 -3.02132 
2 3.44358 -3.0561 0.629962 
2 -1.46979 -0.287477 2.16562 
2 2.27823 -2.34103 0.423645 
2 2.19765 -1.95398 3.5698 
2 0.893464 -2.12155 -2.67563 
2 -1.24576 0.886389 1.23335 
2 -1.41908 -0.308927 -2.4662 
2 -0.727345 -3.36466 3.01386 
2 2.79085 0.957511 2.16033 
2 0.180805 -1.0613 -2.51434 
2 1.27984 2.96313 -1.93355 
2 -2.63166 0.662534 1.55754 
2 -2.29452 2.75585 -1.37136 
2 -2.59007 -2.90396 -0.165922 
2 -2.39919 1.98068 1.71346 
2 -1.61287 -2.42631 0.704927 
2 -3.42741 -3.65376 1.18177 
2 -1.51705 -3.59098 2.64006 
2 0.117051 3.53804 -2.5497 
2 -3.49706 -2.57429 -1.22556 
2 -2.29626 -2.66063 3.11229 
2 3.58454 1.53212 -0.363313 
2 1.01064 -1.43693 3.45485 
2 -2.78082 -0.652989 -0.439296 
2 -2.8452 -0.442879 -2.23247 
2 0.379969 2.40888 3.5657 
2 -2.11817 -0.749358 0.624875 
2 0.437994 1.27665 -2.55561 
2 3.59394 -3.00817 2.42723 
2 -0.516837 -2.41048 -2.93853 
2 -0.427799 1.5319 -0.0443339 
2 -3.06715 -3.69388 -1.05804 
2 3.59909 -1.576 2.45282 
2 -0.211909 -1.9351 -3.66823 
2 -2.01885 -3.15784 1.43987 
2 0.392097 -3.42432 0.893406 
2 1.43092 -2.7043 -0.494964 
2 -2.22259 -0.511361 3.73217 
2 -2.85821 3.57348 2.86791 
2 2.61339 2.28553 -0.823877 
2 -1.74515 1.17339 -0.932225 
2 0.0452228 -2.12166 1.2318 
2 -3.42598 -1.53272 -3.38209 
2 0.977084 0.784549 -0.00641953 
2 -3.24224 -1.39398 -0.187976 
2 -0.859452 2.8215 3.05317 
2 -1.27445 -1.45747 1.49403 
2 2.53424 -0.653801 1.78015 
2 -0.437121 -0.579352 -1.42869 
2 -0.811496 1.69548 3.71915 
2 2.52633 -3.20604 1.7319 
2 2.40575 3.30059 2.47321 
2 2.81119 -0.0883898 0.753219 
2 1.65184 0.271857 2.31421 
2 -1.6736 -2.52943 2.40266 
2 -0.942287 -1.45986 2.83595 
2 -0.814074 2.55698 -0.590944 
2 -2.86079 -1.95046 1.58058 
2 -3.62333 -2.51643 -3.67282 
