ITEM: TIMESTEP
494
ITEM: NUMBER OF ATOMS
500
ITEM: BOX BOUNDS xy xz yz pp pp pp
-3.7345 3.83907 0.104566
-3.7345 3.7345 0
-3.7345 3.7345 0
ITEM: ATOMS type xu yu zu 
1 3.25629 -1.88412 -3.57028 
1 -1.60939 -1.18866 -3.58127 
1 -2.9365 -2.07019 3.43302 
1 2.83928 -1.27693 -1.00235 
1 0.961377 2.04844 2.99065 
1 3.26911 2.45994 2.20545 
1 2.66926 -0.68777 2.81606 
1 -0.548339 3.24535 -2.04835 
1 2.81741 0.668402 -1.71422 
1 -3.05745 1.62472 -0.649975 
1 0.882655 -3.12721 3.39604 
1 0.742278 -3.00288 -0.976572 
1 -1.19929 2.48017 0.23491 
1 -1.01792 -1.97479 2.14284 
1 -2.58422 0.258716 -3.44302 
1 -2.52734 -1.2045 1.26221 
1 -1.43509 -2.89884 3.1797 
1 -0.694423 0.326919 -2.86041 
1 1.03733 -0.855757 1.08667 
1 0.38793 -0.502098 -1.8511 
1 1.41362 3.60159 -3.43046 
1 3.64026 2.35083 -0.83373 
1 -1.96491 1.98877 0.865116 
1 -1.38698 -0.764753 0.0834856 
1 3.74044 2.1931 -1.85514 
1 2.9148 3.01517 -0.382475 
1 1.16542 0.142067 1.60493 
1 1.55378 -2.34141 3.13676 
1 -0.582032 3.41798 -3.11874 
1 3.2189 -0.267065 -1.2795 
1 0.826662 -2.19859 -0.134065 
1 -2.0836 0.964747 0.931382 
1 -0.011355 -1.38489 -1.46739 
1 1.10269 1.07216 2.312 
1 1.91807 1.83966 -2.89544 
1 1.89554 -0.752618 0.431096 
1 2.50473 -1.55477 0.0560291 
1 1.77314 -1.9216 -2.40819 
1 -3.20391 0.346926 2.20146 
1 -0.81328 3.1634 1.02142 
1 -1.82789 -2.30289 1.56349 
1 -3.16879 -2.00788 -1.79717 
1 -2.65653 1.25771 2.18486 
1 -3.29201 1.09201 -3.47296 
1 2.74318 1.70384 1.69326 
1 0.850883 -1.92455 -1.14681 
1 0.54162 -0.701397 3.3429 
1 -0.863293 -0.926185 2.0606 
1 3.78591 -0.286743 -2.18469 
1 3.26107 -0.20055 1.5077 
1 -0.83243 0.0827713 1.58011 
1 0.525704 -3.18 0.0342443 
1 -1.12886 1.73902 -0.535729 
1 -0.345771 1.0902 -2.21075 
1 -2.21045 -0.54656 -2.84967 
1 3.44652 -0.304343 3.42607 
1 -0.917568 -1.79545 -1.78977 
1 3.25989 1.63858 -3.51021 
1 0.0496572 -3.14673 2.70519 
1 -1.28039 -2.4573 -2.51446 
1 -3.1995 3.39604 3.67658 
1 -1.06136 0.263723 -1.86117 
1 -3.26588 -1.20999 -2.53927 
1 1.98297 3.52369 -1.80657 
1 -0.949538 2.33567 2.30217 
1 1.91983 2.91014 -0.896001 
1 0.936874 2.1165 1.91447 
1 -2.14391 1.89573 -1.22512 
1 1.04928 1.05622 3.39702 
1 1.97911 0.892752 1.70107 
1 2.9396 2.05049 -2.53975 
1 -0.155241 -2.43767 0.337241 
1 -0.952388 -3.03041 2.19739 
1 3.67914 -1.86384 -0.746645 
1 1.7773 1.88527 1.28381 
1 1.73729 0.845071 -0.445919 
1 3.33723 3.54762 0.794316 
1 -2.59828 3.06172 2.18342 
1 2.54599 0.128368 2.20068 
1 1.21025 0.2088 -1.91199 
1 -2.1156 1.89586 -0.158099 
1 0.161129 0.43649 -0.221207 
1 -0.15598 -0.218387 2.37392 
1 -1.31328 3.57962 0.053812 
1 -1.76641 2.64496 1.64278 
1 3.38459 3.62424 -3.18156 
1 -1.8441 1.03869 -3.63729 
1 2.26235 2.65394 1.82976 
1 -0.493658 -0.173029 3.3736 
1 -0.0266873 3.04311 -1.13867 
1 -0.936847 2.39349 -1.43818 
1 -1.20668 -3.13098 1.10771 
1 3.49475 -3.26677 3.42684 
1 0.870015 -1.44811 -2.09147 
1 3.35974 -0.882482 -3.11169 
1 3.61309 0.0493597 0.408659 
1 -3.54707 3.06393 1.58003 
1 0.289107 3.1765 0.81646 
1 -0.0133982 2.57957 2.79953 
1 -0.0402174 1.95264 -2.81869 
1 -2.13416 2.92651 3.57938 
1 -3.53692 3.33365 -0.525197 
1 2.29982 3.60755 0.261198 
1 -2.80731 2.60733 -3.16368 
1 -2.49942 -2.17121 0.779981 
1 -1.66649 2.92167 -1.98214 
1 2.86285 -0.958752 -2.04097 
1 2.98927 3.423 1.78453 
1 -1.15654 -2.31766 -0.818686 
1 1.83255 -1.92661 -0.697956 
1 2.30601 -2.81471 -0.338466 
1 1.63401 2.65889 3.6219 
1 3.25186 -1.81102 -2.50164 
1 2.52594 -3.65806 -1.00565 
1 2.86688 -2.45939 2.15382 
1 2.8068 -2.04324 1.08627 
1 0.803889 3.14523 3.24882 
1 -0.462227 2.49721 -3.6868 
1 -0.701136 1.11509 1.88441 
1 -3.02238 -3.10879 -3.47492 
1 -3.68049 -1.13387 -1.54665 
1 -1.78324 1.12367 2.77291 
1 -3.67012 -1.3956 1.40263 
1 2.29623 -3.46613 -3.31257 
1 -0.173649 -2.95813 1.38202 
1 0.725498 -2.54903 0.882529 
1 0.383081 1.36604 0.305596 
1 -1.06643 1.46472 -2.96767 
1 2.39318 -1.36456 -3.30058 
1 -0.4538 -3.1824 -2.57997 
1 -1.46489 -1.22703 -2.52777 
1 -2.82382 -2.84443 1.47583 
1 -2.39246 -1.12686 -1.92973 
1 2.19625 2.32793 -0.0284539 
1 0.00148979 -1.33692 1.61064 
1 0.637126 0.366077 0.70241 
1 3.56258 1.36749 -1.23819 
1 1.94942 -0.832651 -2.53558 
1 -2.86023 0.438905 -2.39611 
1 -2.93182 1.49562 1.19843 
1 -3.21772 -0.468317 1.52369 
1 3.57116 -3.60485 -1.42751 
1 0.842604 2.25525 0.83477 
1 1.41313 -1.92299 -3.40789 
1 -2.63236 -2.44106 -0.927801 
1 -2.73047 2.6482 -0.588909 
1 2.5741 -3.07307 0.836809 
1 -1.62431 1.86832 -2.1646 
1 1.24815 -2.89712 -3.02048 
1 2.54663 1.56008 0.63331 
1 1.96835 3.65057 1.77917 
1 0.38269 -1.56577 0.646175 
1 -0.53544 -0.140752 0.339646 
1 -3.10542 2.09926 0.302841 
1 -2.59814 3.35894 -2.37961 
1 0.946732 -3.72897 -2.3728 
1 -0.20129 2.24381 0.503617 
1 -3.5464 -2.28265 2.00879 
1 1.94901 -1.90053 2.24362 
1 -1.67308 2.78831 -0.704389 
1 3.37446 0.555651 2.75444 
1 3.66101 2.05857 1.19351 
1 -2.60422 2.31921 -2.12535 
1 1.80585 -0.129198 3.1175 
1 -3.15071 0.125318 -0.390831 
1 0.00755237 1.97841 -1.67632 
1 3.30112 2.17903 0.141108 
1 3.75138 3.31631 2.70345 
1 1.00271 -3.30174 1.49754 
1 0.448553 2.85991 -2.11148 
1 1.46827 2.80774 -2.7689 
1 0.0321884 2.17995 -0.527203 
1 3.60962 2.62385 -3.18936 
1 -2.56438 0.774191 -0.947528 
1 1.01391 1.18323 1.23623 
1 -3.2744 -3.54616 2.0646 
1 -3.18813 2.15866 2.09428 
1 1.93398 -2.97412 2.37887 
1 2.87287 -3.48288 -2.27059 
1 3.45244 0.65384 -0.495364 
1 3.28076 -2.80294 -3.05165 
1 -2.27197 -3.52325 3.37355 
1 -2.16515 2.12262 2.56066 
1 2.82189 2.62138 0.948778 
1 1.77873 -2.92282 -1.26435 
1 -1.43028 0.205704 0.696292 
1 3.67899 1.24552 1.96103 
1 -1.10807 -2.83829 0.0924929 
1 -3.18594 3.20518 0.478367 
1 -2.88133 0.999047 0.202484 
1 0.00884746 -2.23676 2.12761 
1 1.14187 -0.617687 -1.13427 
1 2.94522 0.745795 1.25908 
1 -2.35174 -0.385529 2.18807 
1 1.47051 1.56502 0.282372 
1 -1.88888 -1.34767 2.14143 
1 2.00236 1.68528 3.47478 
1 3.55002 -1.4119 0.332572 
1 0.845686 1.44037 -0.656732 
1 -2.44121 -1.13181 3.15048 
1 3.44671 2.43503 3.26472 
1 -0.827745 -2.12153 1.10398 
1 -1.84743 -2.74032 -1.60952 
1 -3.00829 -0.229386 3.0582 
1 0.498302 -1.42448 -3.27052 
1 3.14206 -2.74372 -0.97253 
1 0.870969 0.421971 -0.958552 
1 -2.40258 -0.0387641 1.08534 
1 -3.11553 3.03066 -1.49391 
1 0.166834 0.534954 -3.55298 
1 2.12213 0.854805 2.80083 
1 1.48783 -0.8369 -3.53071 
1 -0.58601 -1.19199 3.60043 
1 0.346817 0.36853 -2.52032 
1 -0.862829 -1.26429 -0.838146 
1 0.0824357 -0.334398 1.26678 
1 3.13955 -3.43514 -0.122701 
1 -1.46273 3.6285 1.77716 
1 2.48823 -0.331759 -3.566 
1 3.485 -2.67444 -1.95897 
1 1.08661 3.08809 1.54895 
1 0.645171 3.30653 -0.295372 
1 -3.60175 -2.32366 0.934698 
1 0.984221 -3.6718 2.46848 
1 -1.43296 -3.52864 -2.17624 
1 1.71662 0.61993 0.619084 
1 -3.48204 1.56017 2.99564 
1 3.59361 -2.31382 2.98453 
1 -1.149 1.41846 0.514387 
1 -0.565861 -0.611988 -2.309 
1 2.44636 2.53378 2.90524 
1 -1.42127 2.17108 3.32388 
1 1.88334 1.79996 2.37518 
1 0.465136 -2.13643 3.26297 
1 2.86454 -0.509141 -0.0416263 
1 -1.31476 -0.743182 -1.6068 
1 2.84552 -3.4326 2.58993 
1 -1.85871 -1.70287 -1.24798 
1 2.78045 -1.70755 2.96223 
1 -3.63061 0.14007 -3.1433 
1 2.14082 -0.222634 -1.65396 
1 1.24076 -0.0807685 -0.12442 
1 2.90064 3.35201 3.39892 
1 -1.09005 -2.13556 -3.53867 
1 0.0455362 -2.18998 -2.24749 
1 -3.6262 -1.27027 3.24351 
1 -3.40518 -3.08719 -0.540884 
1 -1.97724 -0.725612 -0.806458 
1 -2.83325 -1.39954 -0.949551 
1 -2.44474 3.6095 1.2483 
1 0.0678522 1.62373 1.32499 
1 -0.175159 1.21593 -0.892794 
1 0.314435 -2.47202 -3.22176 
1 0.988941 -1.80789 1.56459 
1 -0.383704 0.769288 0.856853 
1 -1.86457 0.870734 -0.109968 
1 -3.13804 -2.2179 -0.0117848 
1 -3.16283 -3.19526 0.487651 
1 1.83814 -3.76575 3.11114 
1 1.48622 -3.59626 -0.465143 
1 0.862829 0.133462 2.728 
1 -1.76568 0.475668 -2.72741 
1 -1.6975 -1.89656 3.05212 
1 -1.83445 -3.16753 -0.630561 
1 0.325842 -3.52484 -3.25265 
1 -2.12715 2.96265 0.409363 
1 0.651203 1.12239 -1.71205 
1 0.955392 -2.60607 2.30561 
1 1.81967 -2.54784 1.37718 
1 -2.24096 -0.112326 0.0333157 
1 -2.92033 -0.406928 -1.3042 
1 1.75358 -0.632433 2.18818 
1 2.86752 -0.00989638 -2.60129 
1 -3.00337 2.57768 3.06239 
1 -1.83854 2.19111 -3.15835 
1 2.92525 1.56421 2.81043 
1 0.991472 1.94564 -2.29858 
1 -0.0210511 0.709198 2.88432 
1 -0.567766 -2.2565 3.03208 
1 -0.909349 2.09726 1.27584 
1 -0.0680455 -1.3103 2.68874 
1 -0.10771 -2.37395 -0.779313 
1 0.434477 2.89986 -3.17745 
1 3.57718 1.20015 0.47233 
1 0.944564 1.94845 -3.38239 
1 0.0640859 1.56751 3.58083 
1 -0.09299 0.318853 -1.4496 
1 -0.803199 -0.22781 -0.707782 
1 -2.12336 -2.49908 -3.50531 
1 -0.643094 3.40953 2.43187 
1 -2.27278 -2.10025 -2.35573 
1 -0.0282369 2.61647 1.71375 
1 -0.945013 2.51858 -2.70897 
1 -0.834757 0.73931 -0.20507 
1 1.93699 2.38783 -1.89988 
1 -1.95695 -2.24908 -0.113691 
1 1.55977 -2.87875 0.35951 
1 -3.02243 -1.29969 2.25333 
1 0.391463 -0.590752 0.257379 
1 -1.97137 0.113027 3.13545 
1 -1.7056 3.30435 -2.98283 
1 2.11961 -0.124787 1.25132 
1 3.61827 3.14431 -2.25355 
1 1.8382 0.177257 -2.73956 
1 -2.23652 -3.23497 2.32023 
1 -2.14274 3.62875 -1.35415 
1 -0.688856 -1.05156 0.870108 
1 0.913804 -0.513491 -2.73369 
1 2.57083 -2.71544 3.31475 
1 -0.37392 3.11335 -0.0977577 
1 -3.47174 0.460796 -1.45788 
1 -0.146434 3.47484 3.38905 
1 -3.40097 0.54904 1.18384 
1 -1.04144 3.55624 -1.1242 
1 -0.403217 -3.49013 0.491562 
1 2.01538 0.687615 -3.63338 
1 1.84279 -1.27793 3.10478 
1 -1.65817 1.52671 1.78192 
1 0.955908 2.37782 -1.29186 
1 1.55301 -1.81881 0.564486 
1 -2.98165 1.38046 -1.78618 
1 -3.37647 1.81511 -2.74855 
1 -3.08859 -3.00058 2.92216 
1 -1.59416 -0.64366 1.34878 
1 -1.99472 0.952584 -1.80191 
1 0.982968 -1.55441 2.58306 
1 2.68757 0.593304 0.226693 
1 2.87616 2.84846 -1.5037 
1 1.9631 -1.29741 1.39241 
1 -2.09112 -0.0991603 -1.87922 
1 -2.5387 1.79486 3.58441 
1 -2.50918 3.67504 -0.287955 
1 -1.65242 3.04824 2.65674 
1 -3.46163 -3.39018 -2.54792 
1 -2.40987 1.3628 -2.76765 
1 1.5177 2.84652 2.52298 
1 0.122315 -3.512 -1.74976 
1 1.18904 1.00063 -2.91168 
1 0.233696 0.62072 1.79446 
1 1.12222 2.39755 -0.228794 
1 2.50827 0.264807 -0.762596 
1 1.10452 0.118544 -3.57554 
1 2.597 2.4778 -3.48961 
1 -2.52151 -1.53576 -3.22014 
1 -0.472513 -2.99951 -3.69387 
1 -2.33459 -3.14644 -2.64632 
1 -2.76811 0.812695 3.13819 
1 -1.65261 0.290132 -0.981182 
1 3.07297 0.625148 -3.68972 
1 0.228486 3.62788 1.85709 
1 3.78175 -0.762251 -0.527958 
1 1.78092 1.18484 -1.91882 
1 -2.38381 -1.31874 0.0107972 
1 -2.93792 -3.09259 -1.69487 
1 2.82628 -0.958309 0.946619 
1 0.0925544 -1.45011 -0.362049 
1 0.147237 1.61852 2.38692 
1 1.80911 2.82505 0.822465 
1 -0.896894 -1.75292 0.0721207 
1 -0.83569 0.79736 3.66613 
1 -0.0390008 -0.497551 -3.20036 
1 -0.291457 -3.42208 -0.658085 
1 1.97599 -2.97753 -2.28686 
1 0.183814 -0.493543 -0.778729 
1 1.81319 1.82401 -0.929322 
1 2.67107 1.74569 -1.5506 
1 -1.05068 1.31778 -1.47697 
1 1.14532 -1.18752 -0.227552 
1 -1.78337 0.469215 1.82351 
1 1.23515 3.63409 0.57272 
1 -1.39731 -0.729756 2.95067 
1 2.50428 -2.14155 -1.61147 
1 3.61776 0.923266 -2.39916 
1 2.90511 -1.39662 1.96352 
1 -2.09577 -3.16707 0.528167 
1 2.71759 1.44949 -0.477263 
1 0.991185 -2.64237 -1.96815 
1 3.18987 -2.39342 0.0903596 
1 -0.714862 -2.87875 -1.59272 
1 -0.777765 1.4742 2.87287 
1 3.63629 -0.623245 2.40039 
1 -1.66836 -1.54444 0.742473 
1 2.54001 3.07137 -2.61214 
1 3.40354 -3.12125 1.52196 
1 -0.494876 -1.53796 -2.86456 
1 -1.045 0.360315 2.62372 
1 -3.26515 -2.26208 -2.87258 
1 -1.40007 -0.160574 -3.48931 
1 -3.08792 -0.701114 -3.48004 
1 -1.18615 3.52715 3.4587 
1 1.03022 3.45576 -1.28003 
1 -3.07714 -0.699001 0.432801 
1 -1.39837 -3.2178 -3.23531 
1 2.31456 -2.41864 -3.16192 
1 0.708334 -0.701925 2.08235 
1 2.58665 1.02404 -2.75019 
1 -2.52202 -2.21402 2.38972 
1 1.85841 -1.27113 -1.55643 
1 -2.74808 2.56911 1.19782 
1 2.03373 -0.698916 -0.629374 
2 1.67079 0.0701983 -0.933476 
2 0.413512 -3.01134 -2.51364 
2 -0.904621 -0.797318 -3.12746 
2 3.65372 -0.694363 0.88363 
2 2.47395 3.40793 1.09061 
2 -3.30575 3.28447 -2.92384 
2 1.8788 3.68203 -2.6719 
2 -0.287367 1.1278 -3.12049 
2 -1.61132 -1.48283 -0.410106 
2 1.75629 -3.38359 1.02734 
2 -1.27139 2.78593 -3.52353 
2 -0.736321 1.86573 -2.16324 
2 0.186567 -2.65832 -1.54764 
2 2.65324 0.161357 3.13081 
2 -3.12739 -1.56568 0.709244 
2 -3.51633 0.421353 3.45728 
2 -2.47733 3.59062 -3.29346 
2 1.31117 -0.674714 -1.9724 
2 1.35544 -0.138608 0.75758 
2 -1.40842 0.0803833 -0.16372 
2 -1.61191 3.56275 0.896292 
2 2.24953 1.05569 -1.14362 
2 2.09849 -0.0025493 -0.00863767 
2 -0.703043 -3.66447 1.60675 
2 2.73055 -2.52956 -2.39511 
2 1.28124 -1.29751 -2.83057 
2 2.99237 -1.07265 3.56121 
2 2.59345 -3.01525 -1.60013 
2 -0.52476 -0.900792 -0.0863927 
2 1.64273 3.08429 -0.0371989 
2 0.647769 2.95022 2.32448 
2 -3.38232 2.02474 -3.67125 
2 1.60241 -2.11924 -1.56661 
2 -1.24373 1.01113 -2.26741 
2 -3.02238 2.16462 -1.32688 
2 -0.825017 0.589583 -1.06034 
2 -2.98319 0.175434 0.479697 
2 -2.3683 0.463586 2.45528 
2 2.72289 -2.06707 -0.6367 
2 3.34417 -1.88877 -1.5745 
2 -1.73619 -1.8815 -3.02175 
2 3.44162 -3.0563 0.631706 
2 -1.4657 -0.2867 2.16876 
2 2.2838 -2.34122 0.419411 
2 2.19664 -1.95077 3.57025 
2 0.898213 -2.12216 -2.67655 
2 -1.23844 0.884914 1.23327 
2 -1.41179 -0.311562 -2.46449 
2 -0.724824 -3.3661 3.01373 
2 2.80108 0.961028 2.15914 
2 0.187743 -1.06392 -2.51443 
2 1.2935 2.96299 -1.93203 
2 -2.62485 0.66376 1.55839 
2 -2.28196 2.75483 -1.37312 
2 -2.58828 -2.90489 -0.164628 
2 -2.39107 1.98054 1.71528 
2 -1.61071 -2.42732 0.706363 
2 -3.4276 -3.65126 1.1833 
2 -1.51495 -3.59193 2.63992 
2 0.132228 3.53669 -2.55038 
2 -3.49324 -2.57008 -1.22248 
2 -2.29257 -2.66012 3.11334 
2 3.59546 1.53056 -0.362697 
2 1.01862 -1.44434 3.45455 
2 -2.77404 -0.653232 -0.440319 
2 -2.83668 -0.442254 -2.23386 
2 0.391589 2.40825 3.56399 
2 -2.11153 -0.749435 0.626086 
2 0.448478 1.27634 -2.55302 
2 3.59567 -3.00565 2.4314 
2 -0.512314 -2.41194 -2.93914 
2 -0.419311 1.53134 -0.0420088 
2 -3.06612 -3.69863 -1.05638 
2 3.60388 -1.57409 2.45228 
2 -0.207843 -1.93695 -3.66887 
2 -2.0159 -3.15834 1.44222 
2 0.393285 -3.41952 0.881462 
2 1.43092 -2.70323 -0.496155 
2 -2.21339 -0.510791 3.7315 
2 -2.84117 3.5768 2.87031 
2 2.62719 2.28421 -0.827515 
2 -1.7346 1.17307 -0.930543 
2 0.0482039 -2.12498 1.23325 
2 -3.41797 -1.53059 -3.38265 
2 0.985159 0.78419 -0.00663603 
2 -3.23449 -1.39455 -0.185566 
2 -0.848861 2.8175 3.0531 
2 -1.26916 -1.45707 1.4946 
2 2.54196 -0.651324 1.78461 
2 -0.43136 -0.573118 -1.43248 
2 -0.799598 1.69244 3.71827 
2 2.5243 -3.20216 1.735 
2 2.41963 3.30224 2.46879 
2 2.81942 -0.091994 0.749335 
2 1.66335 0.277272 2.31527 
2 -1.67018 -2.53186 2.40252 
2 -0.938772 -1.46125 2.83615 
2 -0.803116 2.55636 -0.591566 
2 -2.85754 -1.94955 1.58227 
2 -3.61715 -2.51536 -3.67249 
