ITEM: TIMESTEP
495
ITEM: NUMBER OF ATOMS
500
ITEM: BOX BOUNDS xy xz yz pp pp pp
-3.7345 3.84654 0.112035
-3.7345 3.7345 0
-3.7345 3.7345 0
ITEM: ATOMS type xu yu zu 
1 0.0470807 -2.18998 -2.24749 
1 -0.915629 -1.79545 -1.78977 
1 -0.492679 -1.53796 -2.86456 
1 -1.27911 -2.4573 -2.51446 
2 -1.73434 -1.8815 -3.02175 
1 -3.26336 -1.20999 -2.53927 
1 -1.15513 -2.31766 -0.818686 
1 -3.26368 -2.26208 -2.87258 
1 -0.714007 -2.87875 -1.59272 
1 -1.46239 -1.22703 -2.52777 
1 -2.27114 -2.10025 -2.35573 
1 -2.83092 -1.39954 -0.949551 
1 -2.51931 -1.53576 -3.22014 
1 -3.08488 -0.701114 -3.48004 
1 -2.33401 -3.14644 -2.64632 
1 -0.106349 -2.37395 -0.779313 
1 -3.16707 -2.00788 -1.79717 
1 -2.38986 -1.12686 -1.92973 
1 -2.63107 -2.44106 -0.927801 
1 -1.84644 -2.74032 -1.60952 
1 -0.562739 -0.611988 -2.309 
1 -0.860359 -1.26429 -0.838146 
1 -2.20726 -0.54656 -2.84967 
2 -1.60907 -1.48283 -0.410106 
1 -1.85668 -1.70287 -1.24798 
1 -2.93728 -3.09259 -1.69487 
2 -0.510992 -2.41194 -2.93914 
1 -1.31177 -0.743182 -1.6068 
1 -3.46129 -3.39018 -2.54792 
2 -0.901684 -0.797318 -3.12746 
1 -1.97423 -0.725612 -0.806458 
1 -0.453248 -3.1824 -2.57997 
1 -0.00900543 -1.38489 -1.46739 
1 -0.799692 -0.22781 -0.707782 
2 -0.428199 -0.573118 -1.43248 
1 -2.917 -0.406928 -1.3042 
1 -1.39785 -3.2178 -3.23531 
2 -0.521926 -0.900792 -0.0863927 
2 0.190414 -1.06392 -2.51443 
1 0.187055 -0.493543 -0.778729 
2 -1.40837 -0.311562 -2.46449 
2 -2.77095 -0.653232 -0.440319 
1 -1.08845 -2.13556 -3.53867 
1 0.0948388 -1.45011 -0.362049 
2 -3.41576 -1.53059 -3.38265 
2 -3.23215 -1.39455 -0.185566 
1 -1.60684 -1.18866 -3.58127 
1 -1.83388 -3.16753 -0.630561 
1 -3.40453 -3.08719 -0.540884 
1 -0.291144 -3.42208 -0.658085 
2 -2.83339 -0.442254 -2.23386 
1 -1.43275 -3.52864 -2.17624 
1 -1.95546 -2.24908 -0.113691 
1 -3.02175 -3.10879 -3.47492 
1 -1.3965 -0.160574 -3.48931 
2 -3.61593 -2.51536 -3.67249 
1 0.122537 -3.512 -1.74976 
2 -2.58745 -2.90489 -0.164628 
1 -0.0357639 -0.497551 -3.20036 
2 -3.49208 -2.57008 -1.22248 
1 -2.12212 -2.49908 -3.50531 
1 -2.08748 -0.0991603 -1.87922 
2 0.187644 -2.65832 -1.54764 
1 0.315697 -2.47202 -3.22176 
1 0.326052 -3.52484 -3.25265 
1 0.391162 -0.502098 -1.8511 
2 0.414235 -3.01134 -2.51364 
1 0.500612 -1.42448 -3.27052 
1 0.74301 -3.00288 -0.976572 
1 0.828198 -2.19859 -0.134065 
1 0.872302 -1.44811 -2.09147 
1 0.852693 -1.92455 -1.14681 
2 -3.06608 -3.69863 -1.05638 
2 0.899825 -2.12216 -2.67655 
1 0.917025 -0.513491 -2.73369 
1 0.992278 -2.64237 -1.96815 
1 1.14499 -0.617687 -1.13427 
1 1.14787 -1.18752 -0.227552 
1 1.24442 -0.0807685 -0.12442 
2 -0.206045 -1.93695 -3.66887 
1 1.24899 -2.89712 -3.02048 
2 1.28368 -1.29751 -2.83057 
1 -0.471778 -2.99951 -3.69387 
2 1.31423 -0.674714 -1.9724 
1 1.41494 -1.92299 -3.40789 
1 -3.67789 -1.13387 -1.54665 
2 1.43195 -2.70323 -0.496155 
1 -3.13652 -2.2179 -0.0117848 
1 0.946737 -3.72897 -2.3728 
1 1.49073 -0.8369 -3.53071 
1 1.48636 -3.59626 -0.465143 
2 1.60403 -2.11924 -1.56661 
1 1.77495 -1.9216 -2.40819 
1 1.77954 -2.92282 -1.26435 
1 1.86087 -1.27113 -1.55643 
1 1.83436 -1.92661 -0.697956 
1 -2.52481 -1.2045 1.26221 
1 -1.82646 -2.30289 1.56349 
1 -0.826132 -2.12153 1.10398 
1 -1.66617 -1.54444 0.742473 
2 0.0498134 -2.12498 1.23325 
2 -2.10855 -0.749435 0.626086 
1 -1.59107 -0.64366 1.34878 
1 -3.60034 -2.32366 0.934698 
2 -1.26689 -1.45707 1.4946 
1 -1.20608 -3.13098 1.10771 
2 -2.85575 -1.94955 1.58227 
2 -1.6094 -2.42732 0.706363 
1 -2.49785 -2.17121 0.779981 
1 -3.07411 -0.699001 0.432801 
1 -0.402972 -3.49013 0.491562 
2 -3.12522 -1.56568 0.709244 
1 -0.686174 -1.05156 0.870108 
1 -2.82293 -2.84443 1.47583 
1 -3.21446 -0.468317 1.52369 
1 -0.172873 -2.95813 1.38202 
1 0.00388737 -1.33692 1.61064 
1 -0.531846 -0.140752 0.339646 
2 -0.702972 -3.66447 1.60675 
1 0.0858358 -0.334398 1.26678 
1 -1.38401 -0.764753 0.0834856 
1 -2.0952 -3.16707 0.528167 
1 -0.894913 -1.75292 0.0721207 
1 -2.39888 -0.0387641 1.08534 
2 -2.01533 -3.15834 1.44222 
1 -3.16229 -3.19526 0.487651 
1 -1.10717 -2.83829 0.0924929 
1 -0.153944 -2.43767 0.337241 
1 -3.66778 -1.3956 1.40263 
1 0.394607 -0.590752 0.257379 
2 0.3936 -3.41952 0.881462 
1 0.526259 -3.18 0.0342443 
1 0.384859 -1.56577 0.646175 
1 0.726683 -2.54903 0.882529 
1 0.990868 -1.80789 1.56459 
1 1.0402 -0.855757 1.08667 
1 1.00315 -3.30174 1.49754 
2 -3.42752 -3.65126 1.1833 
2 1.35903 -0.138608 0.75758 
1 -2.3814 -1.31874 0.0107972 
1 -2.23734 -0.112326 0.0333157 
1 1.56062 -2.87875 0.35951 
1 1.55493 -1.81881 0.564486 
2 1.75664 -3.38359 1.02734 
1 1.89852 -0.752618 0.431096 
1 -3.28719 1.09201 -3.47296 
1 -3.46755 0.460796 -1.45788 
1 -3.37092 1.81511 -2.74855 
1 -3.0521 1.62472 -0.649975 
1 -3.14685 0.125318 -0.390831 
1 -2.97653 1.38046 -1.78618 
1 -2.85606 0.438905 -2.39611 
1 -2.58023 0.258716 -3.44302 
1 -2.55987 0.774191 -0.947528 
1 -2.40477 1.3628 -2.76765 
1 -1.99004 0.952584 -1.80191 
1 -1.83932 1.03869 -3.63729 
1 -1.85997 0.870734 -0.109968 
2 -1.72969 1.17307 -0.930543 
1 -1.76147 0.475668 -2.72741 
1 -1.64859 0.290132 -0.981182 
2 -1.4046 0.0803833 -0.16372 
2 -1.23898 1.01113 -2.26741 
1 -1.12338 1.73902 -0.535729 
1 -1.06123 1.46472 -2.96767 
1 -1.04563 1.31778 -1.47697 
1 -1.05736 0.263723 -1.86117 
1 -3.62674 0.14007 -3.1433 
1 -0.830283 0.73931 -0.20507 
2 -0.820693 0.589583 -1.06034 
1 -0.690361 0.326919 -2.86041 
2 -0.414045 1.53134 -0.0420088 
1 -0.340947 1.0902 -2.21075 
2 -0.282505 1.1278 -3.12049 
1 -0.170208 1.21593 -0.892794 
1 -0.0889366 0.318853 -1.4496 
1 0.171104 0.534954 -3.55298 
1 0.1653 0.43649 -0.221207 
1 0.350921 0.36853 -2.52032 
2 0.453488 1.27634 -2.55302 
1 0.65606 1.12239 -1.71205 
1 0.850861 1.44037 -0.656732 
1 0.875126 0.421971 -0.958552 
1 1.10837 0.118544 -3.57554 
1 1.19378 1.00063 -2.91168 
1 1.21419 0.2088 -1.91199 
2 1.67459 0.0701983 -0.933476 
1 1.74187 0.845071 -0.445919 
1 1.78584 1.18484 -1.91882 
1 1.81875 1.82401 -0.929322 
1 1.84211 0.177257 -2.73956 
1 1.92365 1.83966 -2.89544 
1 -3.39669 0.54904 1.18384 
1 -2.92659 1.49562 1.19843 
1 -2.87659 0.999047 0.202484 
2 -2.97928 0.175434 0.479697 
2 -2.62045 0.66376 1.55839 
1 -2.0789 0.964747 0.931382 
1 -1.77917 0.469215 1.82351 
1 -1.65291 1.52671 1.78192 
1 -1.42634 0.205704 0.696292 
2 -1.23382 0.884914 1.23327 
1 -1.14385 1.41846 0.514387 
1 -0.828613 0.0827713 1.58011 
1 -0.3792 0.769288 0.856853 
1 0.0732104 1.62373 1.32499 
1 0.238051 0.62072 1.79446 
1 0.388181 1.36604 0.305596 
1 0.641227 0.366077 0.70241 
1 1.01883 1.18323 1.23623 
2 0.989678 0.78419 -0.00663603 
1 1.1693 0.142067 1.60493 
1 1.47581 1.56502 0.282372 
1 1.72098 0.61993 0.619084 
1 1.82086 -2.54784 1.37718 
1 1.95232 -0.832651 -2.53558 
1 1.98374 0.892752 1.70107 
1 1.97675 -2.97753 -2.28686 
1 1.96554 -1.29741 1.39241 
1 2.0198 0.687615 -3.63338 
1 2.03677 -0.698916 -0.629374 
2 2.10222 -0.0025493 -0.00863767 
1 2.12322 -0.124787 1.25132 
1 2.14433 -0.222634 -1.65396 
2 2.25432 1.05569 -1.14362 
1 3.78936 -0.286743 -2.18469 
1 3.78473 -0.762251 -0.527958 
2 2.28519 -2.34122 0.419411 
1 2.31588 -2.41864 -3.16192 
1 2.30693 -2.81471 -0.338466 
1 2.2965 -3.46613 -3.31257 
2 2.59417 -3.01525 -1.60013 
1 3.57129 -3.60485 -1.42751 
1 3.14305 -2.74372 -0.97253 
1 3.28169 -2.80294 -3.05165 
1 3.68101 -1.86384 -0.746645 
1 3.22237 -0.267065 -1.2795 
1 3.13985 -3.43514 -0.122701 
1 2.87124 -0.00989638 -2.60129 
2 2.73175 -2.52956 -2.39511 
1 2.86776 -0.509141 -0.0416263 
2 3.34601 -1.88877 -1.5745 
1 2.84174 -1.27693 -1.00235 
1 3.25814 -1.88412 -3.57028 
2 2.72456 -2.06707 -0.6367 
1 2.52602 -3.65806 -1.00565 
1 3.3626 -0.882482 -3.11169 
1 3.48606 -2.67444 -1.95897 
1 2.87312 -3.48288 -2.27059 
1 3.25378 -1.81102 -2.50164 
1 2.86563 -0.958752 -2.04097 
1 2.49163 -0.331759 -3.566 
1 2.50588 -2.14155 -1.61147 
1 2.39555 -1.36456 -3.30058 
2 2.82306 -0.091994 0.749335 
2 2.52483 -3.20216 1.735 
1 2.57476 -3.07307 0.836809 
1 3.2646 -0.20055 1.5077 
2 3.44229 -3.0563 0.631706 
2 3.65676 -0.694363 0.88363 
2 2.54504 -0.651324 1.78461 
1 3.40415 -3.12125 1.52196 
1 2.82906 -0.958309 0.946619 
1 2.50691 -1.55477 0.0560291 
1 3.19121 -2.39342 0.0903596 
1 2.80849 -2.04324 1.08627 
1 3.55234 -1.4119 0.332572 
1 3.26527 1.63858 -3.51021 
2 3.60073 1.53056 -0.362697 
1 2.51226 0.264807 -0.762596 
1 3.56768 1.36749 -1.23819 
1 2.72278 1.44949 -0.477263 
1 2.82181 0.668402 -1.71422 
1 3.45683 0.65384 -0.495364 
1 2.5914 1.02404 -2.75019 
1 2.67656 1.74569 -1.5506 
1 3.62241 0.923266 -2.39916 
1 3.07733 0.625148 -3.68972 
1 3.61687 0.0493597 0.408659 
1 2.55192 1.56008 0.63331 
1 2.74862 1.70384 1.69326 
1 2.9497 0.745795 1.25908 
1 2.6919 0.593304 0.226693 
1 3.58212 1.20015 0.47233 
1 -3.52985 3.33365 -0.525197 
2 -3.37656 2.02474 -3.67125 
2 -3.29873 3.28447 -2.92384 
1 -3.10876 3.03066 -1.49391 
2 -3.01649 2.16462 -1.32688 
1 -2.80097 2.60733 -3.16368 
1 -2.72409 2.6482 -0.588909 
1 -2.59105 3.35894 -2.37961 
1 -2.59817 2.31921 -2.12535 
1 -2.50177 3.67504 -0.287955 
2 -2.27547 2.75483 -1.37312 
1 -2.13538 3.62875 -1.35415 
1 -2.13828 1.89573 -1.22512 
1 -2.10997 1.89586 -0.158099 
1 -1.83261 2.19111 -3.15835 
1 -1.69856 3.30435 -2.98283 
1 -1.66656 2.78831 -0.704389 
1 -1.65983 2.92167 -1.98214 
1 -1.61871 1.86832 -2.1646 
2 -1.26487 2.78593 -3.52353 
1 -1.03415 3.55624 -1.1242 
1 -0.930719 2.39349 -1.43818 
1 -0.93876 2.51858 -2.70897 
2 -2.47001 3.59062 -3.29346 
2 -0.796825 2.55636 -0.591566 
2 -0.730721 1.86573 -2.16324 
1 -0.574879 3.41798 -3.11874 
1 -0.541359 3.24535 -2.04835 
1 -0.455995 2.49721 -3.6868 
1 -0.367072 3.11335 -0.0977577 
1 -0.0199097 3.04311 -1.13867 
1 0.0132653 1.97841 -1.67632 
1 -0.0345303 1.95264 -2.81869 
1 0.0381029 2.17995 -0.527203 
2 0.139499 3.53669 -2.55038 
1 0.455147 2.85991 -2.11148 
1 0.441112 2.89986 -3.17745 
1 0.652212 3.30653 -0.295372 
1 0.96202 2.37782 -1.29186 
1 0.950247 1.94845 -3.38239 
1 0.997152 1.94564 -2.29858 
1 1.03741 3.45576 -1.28003 
1 1.12836 2.39755 -0.228794 
2 1.3002 2.96299 -1.93203 
1 1.42096 3.60159 -3.43046 
1 1.47482 2.80774 -2.7689 
2 1.64955 3.08429 -0.0371989 
2 1.88621 3.68203 -2.6719 
1 1.94311 2.38783 -1.89988 
1 1.92648 2.91014 -0.896001 
1 -3.54028 3.06393 1.58003 
1 -3.179 3.20518 0.478367 
1 -3.09958 2.09926 0.302841 
1 -2.74178 2.56911 1.19782 
1 -2.43739 3.6095 1.2483 
2 -2.38535 1.98054 1.71528 
1 -2.12046 2.96265 0.409363 
1 -1.95918 1.98877 0.865116 
1 -1.76003 2.64496 1.64278 
2 -1.60462 3.56275 0.896292 
1 -1.45537 3.6285 1.77716 
1 -1.19307 2.48017 0.23491 
1 -0.806382 3.1634 1.02142 
1 -1.30597 3.57962 0.053812 
1 -0.903517 2.09726 1.27584 
1 -0.195312 2.24381 0.503617 
1 -0.0218859 2.61647 1.71375 
1 0.296018 3.1765 0.81646 
1 0.848593 2.25525 0.83477 
1 1.09343 3.08809 1.54895 
1 1.24252 3.63409 0.57272 
1 1.78292 1.88527 1.28381 
1 1.81566 2.82505 0.822465 
1 1.99023 3.52369 -1.80657 
1 1.97574 3.65057 1.77917 
1 2.20231 2.32793 -0.0284539 
1 2.30716 3.60755 0.261198 
1 2.26874 2.65394 1.82976 
1 3.62515 3.14431 -2.25355 
1 2.92155 3.01517 -0.382475 
1 3.61598 2.62385 -3.18936 
1 2.60322 2.4778 -3.48961 
1 3.64634 2.35083 -0.83373 
1 2.54682 3.07137 -2.61214 
1 3.74636 2.1931 -1.85514 
1 3.39195 3.62424 -3.18156 
1 2.88274 2.84846 -1.5037 
1 2.94538 2.05049 -2.53975 
2 2.63321 2.28421 -0.827515 
1 2.99643 3.423 1.78453 
1 3.6668 2.05857 1.19351 
1 3.34451 3.54762 0.794316 
1 2.82825 2.62138 0.948778 
2 2.48109 3.40793 1.09061 
1 3.30703 2.17903 0.141108 
1 -1.01616 -1.97479 2.14284 
1 -0.566288 -2.2565 3.03208 
1 -0.951684 -3.03041 2.19739 
1 -2.34839 -0.385529 2.18807 
1 -2.5205 -2.21402 2.38972 
1 -1.3943 -0.729756 2.95067 
2 -1.66898 -2.53186 2.40252 
1 -1.88649 -1.34767 2.14143 
1 -1.69566 -1.89656 3.05212 
1 -2.43861 -1.13181 3.15048 
1 -3.02 -1.29969 2.25333 
1 -2.23602 -3.23497 2.32023 
1 -3.54495 -2.28265 2.00879 
1 -1.43425 -2.89884 3.1797 
2 -1.51481 -3.59193 2.63992 
2 -1.46225 -0.2867 2.16876 
2 -0.936498 -1.46125 2.83615 
1 -0.860485 -0.926185 2.0606 
1 -2.93484 -2.07019 3.43302 
2 -0.724455 -3.3661 3.01373 
1 -3.08786 -3.00058 2.92216 
2 -2.2915 -2.66012 3.11334 
1 -0.0656213 -1.3103 2.68874 
1 -2.27176 -3.52325 3.37355 
1 -3.00478 -0.229386 3.0582 
1 -0.152464 -0.218387 2.37392 
1 0.050245 -3.14673 2.70519 
1 0.0103452 -2.23676 2.12761 
1 -0.490096 -0.173029 3.3736 
1 -3.27421 -3.54616 2.0646 
1 -0.583468 -1.19199 3.60043 
1 -3.62374 -1.27027 3.24351 
1 0.466734 -2.13643 3.26297 
1 0.544654 -0.701397 3.3429 
1 0.711367 -0.701925 2.08235 
1 0.883263 -3.12721 3.39604 
1 0.984283 -3.6718 2.46848 
2 1.02091 -1.44434 3.45455 
1 0.985148 -1.55441 2.58306 
1 0.956521 -2.60607 2.30561 
2 -2.21017 -0.510791 3.7315 
1 1.55517 -2.34141 3.13676 
1 1.80945 -0.129198 3.1175 
1 1.75668 -0.632433 2.18818 
1 1.84525 -1.27793 3.10478 
2 -3.51218 0.421353 3.45728 
1 -3.47674 1.56017 2.99564 
1 -3.19983 0.346926 2.20146 
1 -2.76356 0.812695 3.13819 
1 -2.53317 1.79486 3.58441 
1 -2.65154 1.25771 2.18486 
2 -2.3641 0.463586 2.45528 
1 -1.96752 0.113027 3.13545 
1 -1.77838 1.12367 2.77291 
1 -1.0409 0.360315 2.62372 
1 -0.831158 0.79736 3.66613 
1 -0.772556 1.4742 2.87287 
1 -0.696287 1.11509 1.88441 
1 -0.0166074 0.709198 2.88432 
1 0.0693879 1.56751 3.58083 
1 0.15259 1.61852 2.38692 
2 -0.794171 1.69244 3.71827 
1 0.866697 0.133462 2.728 
1 1.05407 1.05622 3.39702 
1 1.1075 1.07216 2.312 
2 1.66736 0.277272 2.31527 
1 1.88887 1.79996 2.37518 
1 2.00778 1.68528 3.47478 
1 1.95085 -1.90053 2.24362 
1 1.93474 -2.97412 2.37887 
1 2.12672 0.854805 2.80083 
2 2.19842 -1.95077 3.57025 
2 3.60604 -1.57409 2.45228 
1 2.78248 -1.70755 2.96223 
1 2.90745 -1.39662 1.96352 
1 2.67231 -0.68777 2.81606 
1 3.63941 -0.623245 2.40039 
2 3.5964 -3.00565 2.4314 
1 2.84582 -3.4326 2.58993 
2 2.99504 -1.07265 3.56121 
1 3.44995 -0.304343 3.42607 
1 3.49522 -3.26677 3.42684 
1 2.86816 -2.45939 2.15382 
1 3.59503 -2.31382 2.98453 
1 2.57185 -2.71544 3.31475 
1 3.68397 1.24552 1.96103 
1 2.93055 1.56421 2.81043 
2 2.80578 0.961028 2.15914 
2 2.65714 0.161357 3.13081 
1 3.37875 0.555651 2.75444 
1 2.54986 0.128368 2.20068 
1 0.235848 3.62788 1.85709 
1 1.83811 -3.76575 3.11114 
1 -3.19237 3.39604 3.67658 
1 -3.18223 2.15866 2.09428 
1 -2.99706 2.57768 3.06239 
2 -2.83385 3.5768 2.87031 
1 -2.59148 3.06172 2.18342 
1 -2.1593 2.12262 2.56066 
1 -2.1275 2.92651 3.57938 
1 -1.64563 3.04824 2.65674 
1 -1.41537 2.17108 3.32388 
1 -1.17889 3.52715 3.4587 
1 -0.943468 2.33567 2.30217 
2 -0.842309 2.8175 3.0531 
1 -0.63595 3.40953 2.43187 
1 -0.139225 3.47484 3.38905 
1 -0.00708415 2.57957 2.79953 
2 0.397732 2.40825 3.56399 
2 0.654454 2.95022 2.32448 
1 0.810768 3.14523 3.24882 
1 0.96716 2.04844 2.99065 
1 0.942725 2.1165 1.91447 
1 1.52428 2.84652 2.52298 
1 1.6404 2.65889 3.6219 
2 2.42666 3.30224 2.46879 
1 2.45263 2.53378 2.90524 
1 3.75843 3.31631 2.70345 
1 2.90772 3.35201 3.39892 
1 3.45288 2.43503 3.26472 
1 3.2753 2.45994 2.20545 
