ITEM: TIMESTEP
421
ITEM: NUMBER OF ATOMS
500
ITEM: BOX BOUNDS xy xz yz pp pp pp
-3.7345 3.8316 0.097097
-3.7345 3.7345 0
-3.7345 3.7345 0
ITEM: ATOMS type xu yu zu 
1 0.0425501 -2.18952 -2.24581 
1 -0.918436 -1.7912 -1.79051 
1 -0.498576 -1.53653 -2.86296 
1 -1.28288 -2.45504 -2.51387 
2 -1.73884 -1.87986 -3.02132 
1 -3.2712 -1.2115 -2.53926 
1 -1.15771 -2.31671 -0.820002 
1 -3.27058 -2.26427 -2.87242 
1 -0.714059 -2.87657 -1.59342 
1 -1.46878 -1.22438 -2.52754 
1 -2.27684 -2.10111 -2.356 
1 -2.83511 -1.39926 -0.949759 
1 -2.52602 -1.53648 -3.2204 
1 -3.09368 -0.701935 -3.47893 
1 -2.33551 -3.14636 -2.65053 
1 -0.109271 -2.37165 -0.781285 
1 -3.17294 -2.00743 -1.79684 
1 -2.39698 -1.12734 -1.9296 
1 -2.6343 -2.44159 -0.929843 
1 -1.84803 -2.73871 -1.6093 
1 -0.569903 -0.609631 -2.30717 
1 -0.86566 -1.26218 -0.838 
1 -2.21614 -0.546818 -2.84922 
2 -1.61509 -1.4793 -0.408758 
1 -1.86004 -1.70104 -1.24767 
1 -2.93818 -3.09169 -1.70003 
2 -0.515513 -2.41048 -2.93853 
1 -1.31932 -0.740685 -1.60554 
1 -3.46173 -3.38805 -2.55433 
2 -0.907952 -0.796129 -3.12706 
1 -1.98014 -0.725149 -0.803621 
1 -0.455144 -3.18105 -2.57992 
1 -0.0105967 -1.38729 -1.46064 
1 -0.805284 -0.225371 -0.707406 
2 -0.433965 -0.579352 -1.42869 
1 -2.92259 -0.405682 -1.30255 
1 -1.39926 -3.21619 -3.23524 
2 -0.528812 -0.898112 -0.0879264 
2 0.183479 -1.0613 -2.51434 
1 0.181384 -0.496995 -0.773068 
2 -1.41566 -0.308927 -2.4662 
2 -2.77774 -0.652989 -0.439296 
1 -1.09185 -2.13402 -3.53883 
1 0.0868848 -1.45215 -0.353626 
2 -3.42378 -1.53272 -3.38209 
2 -3.2399 -1.39398 -0.187976 
1 -1.61308 -1.18829 -3.58206 
1 -1.83467 -3.16699 -0.630415 
1 -3.40754 -3.08566 -0.54013 
1 -0.294463 -3.41947 -0.655536 
2 -2.8419 -0.442879 -2.23247 
1 -1.43475 -3.52647 -2.17637 
1 -1.95759 -2.24818 -0.114943 
1 -3.02163 -3.10557 -3.48056 
1 -1.40632 -0.160765 -3.48723 
2 -3.62211 -2.51643 -3.67282 
1 0.123939 -3.50954 -1.75064 
2 -2.58924 -2.90396 -0.165922 
1 -0.0432915 -0.495424 -3.19901 
2 -3.4959 -2.57429 -1.22556 
1 -2.12318 -2.49695 -3.50752 
1 -2.09551 -0.0985296 -1.88064 
2 0.188537 -2.65695 -1.5464 
1 0.310688 -2.47052 -3.22012 
1 0.324475 -3.52356 -3.25147 
1 0.383617 -0.501867 -1.84911 
2 0.412481 -3.01088 -2.51328 
1 0.493857 -1.42251 -3.27023 
1 0.740054 -3.00303 -0.971654 
1 0.822497 -2.20427 -0.136583 
1 0.865249 -1.44619 -2.09204 
1 0.85305 -1.92487 -1.14747 
2 -3.06711 -3.69388 -1.05804 
2 0.895077 -2.12155 -2.67563 
1 0.909275 -0.512495 -2.73309 
1 0.989444 -2.64322 -1.96704 
1 1.13854 -0.616715 -1.13587 
1 1.14012 -1.19143 -0.234613 
1 1.23607 -0.0808794 -0.128439 
2 -0.21011 -1.9351 -3.66823 
1 1.24553 -2.89272 -3.02285 
2 1.27637 -1.29663 -2.83164 
1 -0.473793 -2.9984 -3.69422 
2 1.30878 -0.673475 -1.9732 
1 1.40966 -1.91907 -3.41179 
1 -3.68285 -1.13261 -1.54589 
2 1.43195 -2.7043 -0.494964 
1 -3.13773 -2.21628 -0.0135435 
1 0.949537 -3.72721 -2.37365 
1 1.48457 -0.832735 -3.52963 
1 1.4848 -3.59711 -0.462224 
2 1.60356 -2.12371 -1.56584 
1 1.76553 -1.92385 -2.40864 
1 1.77714 -2.9267 -1.26326 
1 1.85311 -1.2739 -1.55579 
1 1.8337 -1.92888 -0.697816 
1 -2.52999 -1.20451 1.26139 
1 -1.82917 -2.3025 1.56312 
1 -0.829709 -2.11978 1.10315 
1 -1.67138 -1.54368 0.742021 
2 0.0468356 -2.12166 1.2318 
2 -2.11519 -0.749358 0.624875 
1 -1.59487 -0.643656 1.34613 
1 -3.59972 -2.32411 0.933155 
2 -1.27217 -1.45747 1.49403 
1 -1.20923 -3.12868 1.1077 
2 -2.85901 -1.95046 1.58058 
2 -1.61156 -2.42631 0.704927 
1 -2.50029 -2.17377 0.779489 
1 -3.081 -0.698365 0.432645 
1 -0.405011 -3.49001 0.49771 
2 -3.1266 -1.56657 0.705458 
1 -0.687764 -1.05221 0.870486 
1 -2.82632 -2.84556 1.4768 
1 -3.2198 -0.467866 1.52367 
1 -0.177606 -2.95293 1.38368 
1 0.00749139 -1.33358 1.60957 
1 -0.531985 -0.140612 0.341593 
2 -0.705021 -3.66093 1.60572 
1 0.0828054 -0.3312 1.27258 
1 -1.38902 -0.762037 0.0860123 
1 -2.09487 -3.16771 0.52483 
1 -0.901822 -1.75224 0.0716959 
1 -2.40374 -0.0394227 1.08497 
2 -2.01827 -3.15784 1.43987 
1 -3.16143 -3.19603 0.487143 
1 -1.10756 -2.83784 0.0917637 
1 -0.156578 -2.43389 0.335769 
1 -3.66957 -1.39626 1.39988 
1 0.39592 -0.592497 0.265274 
2 0.392407 -3.42432 0.893406 
1 0.520762 -3.18537 0.0403681 
1 0.39526 -1.56805 0.648051 
1 0.721132 -2.55333 0.883119 
1 0.99034 -1.81637 1.56734 
1 1.03824 -0.856528 1.10445 
1 1.01259 -3.29769 1.50043 
2 -3.42733 -3.65376 1.18177 
2 1.34268 -0.14277 0.753866 
1 -2.38926 -1.32026 0.0121413 
1 -2.24477 -0.110516 0.0337394 
1 1.55702 -2.88019 0.36109 
1 1.5463 -1.81991 0.559864 
2 1.76191 -3.38381 1.02779 
1 1.88549 -0.756268 0.429482 
1 -3.29535 1.09179 -3.47405 
1 -3.47758 0.459546 -1.45727 
1 -3.38092 1.81105 -2.74596 
1 -3.06299 1.62305 -0.650904 
1 -3.15603 0.124571 -0.388834 
1 -2.98719 1.38033 -1.78498 
1 -2.8664 0.438784 -2.39634 
1 -2.5902 0.258184 -3.44314 
1 -2.56919 0.772507 -0.946847 
1 -2.41414 1.36363 -2.76623 
1 -2.00041 0.953347 -1.80167 
1 -1.85216 1.04124 -3.63736 
1 -1.8664 0.871951 -0.111274 
2 -1.74025 1.17339 -0.932225 
1 -1.77136 0.477513 -2.72797 
1 -1.65703 0.289918 -0.982165 
2 -1.4128 0.0813273 -0.16554 
2 -1.24992 1.01313 -2.26716 
1 -1.13397 1.73897 -0.535194 
1 -1.07345 1.46662 -2.96728 
1 -1.05616 1.32035 -1.4774 
1 -1.0662 0.26639 -1.86157 
1 -3.63851 0.140348 -3.14494 
1 -0.836292 0.738727 -0.202928 
2 -0.830976 0.592631 -1.05955 
1 -0.700261 0.327964 -2.86088 
2 -0.422532 1.5319 -0.0443339 
1 -0.351318 1.09094 -2.21056 
2 -0.295149 1.13046 -3.12005 
1 -0.180737 1.21731 -0.893883 
1 -0.0991148 0.316714 -1.44574 
1 0.15994 0.538416 -3.55078 
1 0.159677 0.437221 -0.225174 
1 0.34021 0.367977 -2.51856 
2 0.443005 1.27665 -2.55561 
1 0.644624 1.12264 -1.7141 
1 0.840255 1.43876 -0.65768 
1 0.868552 0.421668 -0.963254 
1 1.09545 0.119244 -3.5796 
1 1.1848 0.999571 -2.91093 
1 1.2083 0.210777 -1.91641 
2 1.66782 0.0700529 -0.934325 
1 1.73276 0.84482 -0.446526 
1 1.77459 1.18951 -1.91667 
1 1.80734 1.8253 -0.926059 
1 1.83027 0.17009 -2.7481 
1 1.91275 1.83882 -2.89229 
1 -3.40494 0.549394 1.18529 
1 -2.93369 1.49493 1.19696 
1 -2.88362 0.99844 0.201871 
2 -2.98713 0.175742 0.481872 
2 -2.62727 0.662534 1.55754 
1 -2.08564 0.963879 0.930264 
1 -1.7859 0.469214 1.82291 
1 -1.66174 1.52667 1.78169 
1 -1.42961 0.207173 0.694391 
2 -1.24114 0.886389 1.23335 
1 -1.15147 1.41966 0.513877 
1 -0.834733 0.0840804 1.58033 
1 -0.388043 0.771166 0.858537 
1 0.0653979 1.62473 1.32537 
1 0.229055 0.623601 1.79732 
1 0.379141 1.36657 0.304908 
1 0.630096 0.368854 0.701357 
1 1.01039 1.18355 1.23596 
2 0.981603 0.784549 -0.00641953 
1 1.15766 0.141675 1.60431 
1 1.46733 1.56267 0.28338 
1 1.70919 0.615258 0.617701 
1 1.82716 -2.5413 1.37068 
1 1.94654 -0.836509 -2.53447 
1 1.97335 0.890539 1.69925 
1 1.97125 -2.98184 -2.28744 
1 1.96468 -1.30818 1.38856 
1 2.00836 0.684995 -3.63812 
1 2.0303 -0.699888 -0.630465 
2 2.0933 -0.00435631 -0.00798698 
1 2.10998 -0.129556 1.24902 
1 2.13592 -0.225056 -1.65446 
2 2.24433 1.05754 -1.1425 
1 3.78062 -0.287417 -2.18617 
1 3.77522 -0.761975 -0.528179 
2 2.27962 -2.34103 0.423645 
1 2.30838 -2.4189 -3.16077 
2 2.59019 -3.01839 -1.60133 
1 3.57064 -3.60364 -1.42759 
1 3.13863 -2.74446 -0.97433 
1 3.27424 -2.80676 -3.05576 
1 3.67833 -1.86612 -0.749874 
1 3.21173 -0.268193 -1.28145 
1 3.13977 -3.43566 -0.122609 
1 2.85871 -0.0157893 -2.59828 
2 2.72728 -2.5358 -2.39713 
1 2.8585 -0.507241 -0.0399209 
2 3.34321 -1.88914 -1.57818 
1 2.83612 -1.27972 -1.0007 
1 3.24977 -1.8867 -3.57293 
2 2.72295 -2.06877 -0.633364 
1 2.5251 -3.65893 -1.00307 
1 3.35449 -0.884556 -3.11253 
1 3.48254 -2.67596 -1.96187 
1 2.30544 -2.81599 -0.335021 
1 2.87013 -3.48476 -2.27268 
1 3.24533 -1.81454 -2.50541 
1 2.29728 -3.46711 -3.30924 
1 2.85865 -0.965061 -2.0389 
1 2.48473 -0.332097 -3.56876 
1 2.50304 -2.14323 -1.61561 
1 2.38847 -1.36458 -3.30219 
2 2.81484 -0.0883898 0.753219 
2 2.52686 -3.20604 1.7319 
1 2.57772 -3.07249 0.83421 
1 3.25834 -0.201258 1.51029 
2 3.44426 -3.0561 0.629962 
2 3.65064 -0.693479 0.884783 
2 2.53732 -0.653801 1.78015 
1 3.4055 -3.12141 1.52019 
1 2.82245 -0.955531 0.944394 
1 2.50234 -1.55581 0.0583591 
1 3.19102 -2.39369 0.0892076 
1 2.81249 -2.04154 1.08276 
1 3.54759 -1.41179 0.333513 
1 3.25649 1.63596 -3.51042 
2 3.58981 1.53212 -0.363313 
1 2.50415 0.265214 -0.762429 
1 3.55643 1.36675 -1.2395 
1 2.71211 1.45048 -0.475299 
1 2.80825 0.669588 -1.7151 
1 3.44827 0.654874 -0.494298 
1 2.57747 1.01741 -2.75403 
1 2.66534 1.74867 -1.54687 
1 3.60953 0.920382 -2.39885 
1 3.06676 0.624309 -3.69562 
1 3.60829 0.0499719 0.410321 
1 2.54434 1.5599 0.635365 
1 2.73906 1.70051 1.6961 
1 2.94112 0.743879 1.25935 
1 2.68166 0.593612 0.226969 
1 3.57402 1.19906 0.471148 
1 -3.5435 3.33426 -0.526304 
2 -3.38722 2.02464 -3.66856 
2 -3.3121 3.2835 -2.92383 
1 -3.1212 3.03199 -1.49177 
2 -3.02874 2.16522 -1.32604 
1 -2.81332 2.60607 -3.16194 
1 -2.73695 2.64774 -0.587529 
1 -2.60634 3.36055 -2.37875 
1 -2.61057 2.32048 -2.12373 
1 -2.51794 3.676 -0.289659 
2 -2.28803 2.75585 -1.37136 
1 -2.15125 3.63057 -1.35479 
1 -2.14963 1.89656 -1.22484 
1 -2.12128 1.89585 -0.15826 
1 -1.8438 2.19193 -3.15904 
1 -1.71322 3.30472 -2.9821 
1 -1.67854 2.78876 -0.703815 
1 -1.67321 2.9233 -1.98099 
1 -1.63039 1.8703 -2.16416 
2 -1.27661 2.78847 -3.52277 
1 -1.05015 3.55911 -1.1253 
1 -0.942221 2.39569 -1.43815 
1 -0.950703 2.52028 -2.70824 
2 -2.48324 3.59629 -3.2924 
2 -0.807782 2.55698 -0.590944 
2 -0.741948 1.86671 -2.16347 
1 -0.589008 3.41976 -3.1198 
1 -0.556453 3.24908 -2.04829 
1 -0.467568 2.50006 -3.68624 
1 -0.378205 3.11452 -0.0966026 
1 -0.0346968 3.04707 -1.13833 
1 0.00169105 1.9794 -1.676 
1 -0.0459889 1.95421 -2.81804 
1 0.0282901 2.18197 -0.529149 
2 0.124324 3.53804 -2.5497 
1 0.440773 2.86253 -2.10968 
1 0.429665 2.9011 -3.17571 
1 0.64159 3.30376 -0.297389 
1 0.949924 2.37996 -1.29047 
1 0.941479 1.95052 -3.38215 
1 0.983839 1.94851 -2.29851 
1 1.02545 3.4585 -1.28226 
1 1.11647 2.39448 -0.227087 
2 1.28654 2.96313 -1.93355 
1 1.40568 3.60496 -3.43007 
1 1.46518 2.80882 -2.76973 
2 1.63424 3.08332 -0.0324323 
2 1.87475 3.67233 -2.67141 
1 1.92936 2.38777 -1.89715 
1 1.91295 2.91097 -0.891988 
1 -3.55261 3.05835 1.5762 
1 -3.19214 3.20296 0.476505 
1 -3.11122 2.09711 0.302253 
1 -2.75044 2.56858 1.19531 
1 -2.45201 3.60984 1.24418 
2 -2.39347 1.98068 1.71346 
1 -2.13287 2.96249 0.405306 
1 -1.96746 1.98841 0.86436 
1 -1.76842 2.64434 1.64177 
2 -1.61793 3.56309 0.895218 
1 -1.47184 3.62966 1.77689 
1 -1.20385 2.48128 0.235251 
1 -0.820408 3.16234 1.02481 
1 -1.3175 3.58019 0.053289 
1 -0.911415 2.09623 1.27685 
1 -0.206127 2.2418 0.50188 
1 -0.0301928 2.61652 1.71517 
1 0.282017 3.17336 0.812909 
1 0.840117 2.25539 0.834941 
1 1.07845 3.08949 1.549 
1 1.22805 3.6331 0.576741 
1 1.77462 1.8856 1.28385 
1 1.80794 2.82926 0.829569 
1 1.97888 3.5203 -1.80607 
1 1.96502 3.64417 1.77764 
1 2.19015 2.32944 -0.0232452 
1 2.29308 3.60768 0.261355 
1 2.26194 2.65006 1.83405 
1 3.61379 3.14747 -2.25123 
1 2.90958 3.01491 -0.380338 
1 3.60373 2.61966 -3.18226 
1 2.59293 2.47353 -3.48803 
1 3.63445 2.34982 -0.832965 
1 2.53775 3.06327 -2.6081 
1 3.73476 2.19481 -1.85518 
1 3.37665 3.61907 -3.18306 
1 2.8709 2.84928 -1.50086 
1 2.9351 2.04015 -2.5389 
2 2.61941 2.28553 -0.823877 
1 2.9872 3.42061 1.78848 
1 3.65587 2.05251 1.19356 
1 3.33332 3.5484 0.794744 
1 2.82031 2.62186 0.952518 
2 2.47628 3.41169 1.0901 
1 3.29618 2.17937 0.142642 
1 -1.01916 -1.97377 2.14279 
1 -0.568045 -2.25525 3.032 
1 -0.95675 -3.02873 2.197 
1 -2.35332 -0.385347 2.18877 
1 -2.52381 -2.2131 2.38917 
1 -1.39927 -0.728589 2.94846 
2 -1.67239 -2.52943 2.40266 
1 -1.89042 -1.34675 2.14033 
1 -1.69908 -1.89499 3.05144 
1 -2.44478 -1.13263 3.15039 
1 -3.02476 -1.30002 2.25251 
1 -2.23689 -3.23316 2.31803 
1 -3.54811 -2.28197 2.00787 
1 -1.4368 -2.89713 3.17932 
2 -1.51691 -3.59098 2.64006 
2 -1.46634 -0.287477 2.16562 
2 -0.940012 -1.45986 2.83595 
1 -0.862831 -0.926531 2.05753 
1 -2.93995 -2.07255 3.43234 
2 -0.726975 -3.36466 3.01386 
1 -3.09033 -3.00223 2.91744 
2 -2.29519 -2.66063 3.11229 
1 -0.069485 -1.30917 2.68904 
1 -2.27303 -3.52446 3.36914 
1 -3.01153 -0.230086 3.05936 
1 -0.163206 -0.214364 2.37804 
1 0.0444137 -3.1479 2.69703 
1 0.00835259 -2.23238 2.12731 
1 -0.500696 -0.169815 3.37722 
1 -3.27572 -3.55125 2.0624 
1 -0.588429 -1.19038 3.60089 
1 -3.62934 -1.27273 3.24391 
1 0.465316 -2.13432 3.26601 
1 0.534142 -0.697393 3.34389 
1 0.702933 -0.696621 2.09703 
1 0.873638 -3.12892 3.39353 
1 0.979438 -3.67494 2.46728 
2 1.01294 -1.43693 3.45485 
1 0.983293 -1.55554 2.5838 
1 0.949868 -2.60861 2.31388 
2 -2.21937 -0.511361 3.73217 
1 1.55738 -2.3505 3.13917 
1 1.79958 -0.135002 3.11431 
1 1.74991 -0.641924 2.18456 
1 1.84168 -1.28209 3.11061 
2 -3.52238 0.421803 3.45476 
1 -3.48575 1.56277 2.99562 
1 -3.20553 0.345831 2.20208 
1 -2.77262 0.813156 3.13708 
1 -2.54449 1.79853 3.58165 
1 -2.65918 1.257 2.18336 
2 -2.36993 0.464154 2.4556 
1 -1.97559 0.112994 3.13696 
1 -1.78721 1.12475 2.77331 
1 -1.05093 0.361411 2.62433 
1 -0.843469 0.800333 3.6666 
1 -0.782583 1.47809 2.87365 
1 -0.705121 1.11659 1.88598 
1 -0.0286722 0.713289 2.88672 
1 0.0577695 1.5701 3.58321 
1 0.143161 1.62126 2.38767 
2 -0.806066 1.69548 3.71915 
1 0.856501 0.141115 2.73526 
1 1.04113 1.05962 3.39785 
1 1.09759 1.07404 2.31142 
2 1.65585 0.271857 2.31421 
1 1.87849 1.79848 2.37567 
1 1.99243 1.68467 3.47537 
1 1.94791 -1.90051 2.24641 
1 1.93043 -2.97378 2.36838 
1 2.11421 0.852299 2.79816 
2 2.19943 -1.95398 3.5698 
2 3.60125 -1.576 2.45282 
1 2.77934 -1.70953 2.95823 
1 2.90571 -1.39585 1.96066 
1 2.66546 -0.689905 2.8136 
1 3.63463 -0.625133 2.40114 
2 3.59466 -3.00817 2.42723 
1 2.84141 -3.43001 2.58959 
2 2.98796 -1.07487 3.55913 
1 3.44276 -0.306652 3.42504 
1 3.4953 -3.27127 3.42578 
1 2.86502 -2.45937 2.14822 
1 3.59045 -2.3179 2.98305 
1 2.57361 -2.71786 3.319 
1 3.67534 1.2437 1.96295 
1 2.921 1.55889 2.81495 
2 2.79554 0.957511 2.16033 
2 2.64589 0.159355 3.12705 
1 3.36907 0.549008 2.74978 
1 2.5371 0.125137 2.1978 
1 0.221414 3.63074 1.84644 
1 1.83547 -3.75627 3.10949 
1 -3.20403 3.39516 3.67757 
1 -3.18982 2.15714 2.09128 
1 -3.00859 2.58158 3.05695 
2 -2.8509 3.57348 2.86791 
1 -2.6003 3.06245 2.17932 
1 -2.16945 2.1229 2.55942 
1 -2.14094 2.92687 3.57997 
1 -1.65718 3.04819 2.6572 
1 -1.42616 2.17447 3.32354 
1 -1.193 3.52938 3.4588 
1 -0.953092 2.33858 2.3021 
2 -0.852896 2.8215 3.05317 
1 -0.648219 3.41261 2.42968 
1 -0.152103 3.47787 3.38743 
1 -0.0183818 2.58168 2.8007 
2 0.386112 2.40888 3.5657 
2 0.642395 2.95366 2.32507 
1 0.798555 3.14468 3.2512 
1 0.956965 2.05169 2.99142 
1 0.934615 2.11729 1.9148 
1 1.515 2.84881 2.52353 
1 1.6329 2.66338 3.62135 
1 2.44323 2.52867 2.90589 
1 3.73967 3.31829 2.70531 
1 2.8864 3.35203 3.39794 
1 3.44294 2.43737 3.26966 
1 3.26833 2.45495 2.2089 
2 2.41279 3.30059 2.47321 
