ITEM: TIMESTEP
386
ITEM: NUMBER OF ATOMS
500
ITEM: BOX BOUNDS xy xz yz pp pp pp
-3.7345 3.81666 0.082159
-3.7345 3.7345 0
-3.7345 3.7345 0
ITEM: ATOMS type xu yu zu 
1 3.24312 -1.88832 -3.57436 
1 -1.61905 -1.18854 -3.58242 
1 -2.94417 -2.0742 3.4317 
1 2.83058 -1.28118 -1.00029 
1 0.946052 2.05366 2.99157 
1 3.25863 2.45243 2.21111 
1 2.65954 -0.690634 2.81252 
1 -0.571167 3.25088 -2.04839 
1 2.79668 0.670024 -1.71576 
1 -3.07468 1.62282 -0.651137 
1 0.868909 -3.12917 3.39212 
1 0.737686 -3.00337 -0.969721 
1 -1.21557 2.48165 0.235304 
1 -1.02145 -1.97337 2.14241 
1 -2.59907 0.257559 -3.44344 
1 -2.53464 -1.2042 1.26102 
1 -1.43866 -2.89652 3.17892 
1 -0.709702 0.328447 -2.86065 
1 1.03484 -0.857695 1.11329 
1 0.376331 -0.501406 -1.84808 
1 1.39108 3.60705 -3.42984 
1 3.62136 2.34936 -0.832518 
1 -1.97755 1.98795 0.863825 
1 -1.39398 -0.760457 0.0872856 
1 3.72227 2.19589 -1.85503 
1 2.89657 3.01495 -0.37821 
1 1.1475 0.141597 1.60346 
1 1.55959 -2.35554 3.14116 
1 -0.603448 3.42045 -3.12051 
1 3.20291 -0.268762 -1.28231 
1 0.818109 -2.20699 -0.138136 
1 -2.09344 0.963082 0.929809 
1 -0.0141875 -1.38811 -1.45762 
1 1.08774 1.07518 2.31049 
1 1.90134 1.83788 -2.89095 
1 1.87607 -0.757848 0.428576 
1 2.49805 -1.55591 0.059257 
1 1.75842 -1.92479 -2.40879 
1 -3.21214 0.345091 2.20269 
1 -0.834273 3.16168 1.02606 
1 -1.83128 -2.30272 1.56289 
1 -3.17724 -2.00715 -1.7965 
1 -2.66796 1.25648 2.18263 
1 -3.30414 1.0914 -3.47431 
1 2.72845 1.69877 1.69838 
1 0.850859 -1.92531 -1.14833 
1 0.524983 -0.694428 3.34508 
1 -0.866264 -0.926375 2.05685 
1 3.7725 -0.287727 -2.18666 
1 3.25196 -0.201586 1.51202 
1 -0.840939 0.0852198 1.58091 
1 0.517966 -3.18818 0.0429908 
1 -1.14529 1.7389 -0.534909 
1 -0.36173 1.09139 -2.21005 
1 -2.2243 -0.547255 -2.84899 
1 3.43645 -0.308323 3.42475 
1 -0.922059 -1.78928 -1.79087 
1 3.24652 1.63428 -3.51053 
1 0.0410844 -3.14869 2.69342 
1 -1.28606 -2.4541 -2.51371 
1 -3.21607 3.39462 3.67823 
1 -1.07483 0.267288 -1.86137 
1 -3.27761 -1.21229 -2.53915 
1 1.96638 3.51855 -1.80562 
1 -0.96403 2.33972 2.30207 
1 1.89976 2.91104 -0.889996 
1 0.924028 2.11845 1.91474 
1 -2.16178 1.8969 -1.22469 
1 1.02927 1.06145 3.39773 
1 1.96344 0.889428 1.69777 
1 2.92359 2.03416 -2.53833 
1 -0.159142 -2.43226 0.33451 
1 -0.95982 -3.0282 2.19652 
1 3.67486 -1.86691 -0.750994 
1 1.76453 1.88604 1.28415 
1 1.7233 0.844586 -0.44699 
1 3.32024 3.54909 0.794892 
1 -2.6115 3.0624 2.17682 
1 2.52672 0.123471 2.19627 
1 1.2017 0.211839 -1.91943 
1 -2.13319 1.89568 -0.158437 
1 0.152997 0.438457 -0.227898 
1 -0.171402 -0.212294 2.38064 
1 -1.33135 3.58033 0.0522852 
1 -1.779 2.64377 1.64109 
1 3.36182 3.61596 -3.18427 
1 -1.86355 1.04276 -3.63723 
1 2.25231 2.64858 1.83612 
1 -0.510081 -0.168189 3.3792 
1 -0.0491356 3.04903 -1.13823 
1 -0.954214 2.39658 -1.43814 
1 -1.2111 -3.12768 1.10741 
1 3.4961 -3.27414 3.42499 
1 0.858931 -1.44511 -2.09258 
1 3.34784 -0.885877 -3.1129 
1 3.60032 0.0502969 0.411529 
1 -3.56626 3.05489 1.57377 
1 0.268297 3.17228 0.811247 
1 -0.0303327 2.58249 2.80101 
1 -0.0577702 1.95487 -2.81768 
1 -2.15453 2.92679 3.58043 
1 -3.55772 3.33458 -0.526765 
1 2.27863 3.6086 0.262097 
1 -2.82632 2.60447 -3.16115 
1 -2.50265 -2.17478 0.779342 
1 -1.68671 2.92407 -1.98006 
1 2.85216 -0.968236 -2.03807 
1 2.97556 3.41999 1.79098 
1 -1.16033 -2.31626 -0.820835 
1 1.83104 -1.93006 -0.697595 
1 2.30371 -2.81632 -0.333443 
1 1.62262 2.66625 3.62075 
1 3.23888 -1.81663 -2.50722 
1 2.52421 -3.65944 -1.00108 
1 2.86276 -2.45893 2.14476 
1 2.81291 -2.0399 1.08065 
1 0.785415 3.14478 3.25223 
1 -0.47977 2.50125 -3.68612 
1 -0.714371 1.11815 1.88681 
1 -3.02169 -3.10356 -3.4841 
1 -3.68816 -1.13222 -1.54541 
1 -1.79629 1.12561 2.77364 
1 -3.67238 -1.39664 1.39884 
1 2.29771 -3.46737 -3.30745 
1 -0.180659 -2.95037 1.38424 
1 0.717182 -2.55532 0.882916 
1 0.369352 1.36736 0.304554 
1 -1.08515 1.46729 -2.96654 
1 2.38284 -1.3644 -3.30116 
1 -0.456728 -3.18044 -2.58026 
1 -1.47487 -1.2233 -2.52739 
1 -2.82849 -2.84614 1.47727 
1 -2.40333 -1.12759 -1.92918 
1 2.17819 2.32955 -0.0206054 
1 0.00675053 -1.33211 1.60927 
1 0.619707 0.370364 0.700536 
1 3.54537 1.3661 -1.24015 
1 1.93992 -0.838053 -2.53311 
1 -2.87579 0.438625 -2.3965 
1 -2.94216 1.49435 1.19609 
1 -3.22542 -0.467615 1.52395 
1 3.56947 -3.60315 -1.42718 
1 0.830075 2.25607 0.834578 
1 1.40546 -1.91654 -3.41401 
1 -2.63735 -2.44199 -0.930903 
1 -2.75004 2.64779 -0.586783 
1 2.57902 -3.07136 0.832971 
1 -1.64247 1.87131 -2.16382 
1 1.24271 -2.89002 -3.02398 
1 2.53531 1.55968 0.637144 
1 1.95244 3.64146 1.77702 
1 0.397902 -1.56925 0.64899 
1 -0.535043 -0.139932 0.342243 
1 -3.12315 2.09623 0.302256 
1 -2.62098 3.36118 -2.37859 
1 0.951212 -3.72626 -2.37424 
1 -0.217566 2.24138 0.501209 
1 -3.55033 -2.28188 2.00758 
1 1.94521 -1.89992 2.24794 
1 -1.6912 2.7885 -0.703783 
1 3.36019 0.545127 2.74779 
1 3.64418 2.04804 1.19379 
1 -2.62344 2.32115 -2.12288 
1 1.79121 -0.138071 3.1122 
1 -3.16423 0.12439 -0.387439 
1 -0.00991251 1.98023 -1.6763 
1 3.28454 2.17892 0.143515 
1 3.72293 3.31964 2.70642 
1 1.01729 -3.29449 1.50222 
1 0.42711 2.86423 -2.10885 
1 1.45383 2.80923 -2.77049 
1 0.0179669 2.18335 -0.529807 
1 3.59066 2.61697 -3.17774 
1 -2.57864 0.772565 -0.945874 
1 1.00102 1.18383 1.23535 
1 -3.27647 -3.55442 2.06068 
1 -3.19975 2.15604 2.08965 
1 1.92797 -2.97292 2.36242 
1 2.86841 -3.4855 -2.27412 
1 3.43937 0.654785 -0.493851 
1 3.26943 -2.80922 -3.05838 
1 -2.27391 -3.52552 3.36608 
1 -2.18059 2.12301 2.55863 
1 2.81064 2.62221 0.954692 
1 1.77481 -2.92893 -1.26272 
1 -1.43467 0.20775 0.693732 
1 3.66588 1.24245 1.96458 
1 -1.1088 -2.83779 0.0911016 
1 -3.20577 3.20182 0.475541 
1 -2.89136 0.998587 0.201374 
1 0.00661365 -2.23059 2.12714 
1 1.13176 -0.616415 -1.13641 
1 2.93269 0.743011 1.25981 
1 -2.35846 -0.385477 2.18937 
1 1.45782 1.56137 0.284013 
1 -1.89394 -1.34658 2.13934 
1 1.97829 1.68458 3.47535 
1 3.54307 -1.41156 0.334382 
1 0.829556 1.43771 -0.658186 
1 -2.45045 -1.13387 3.15034 
1 3.43167 2.43899 3.27282 
1 -0.832668 -2.11894 1.10237 
1 -1.85013 -2.7378 -1.60945 
1 -3.01749 -0.230659 3.06002 
1 0.488067 -1.42161 -3.26993 
1 3.13531 -2.74443 -0.975508 
1 0.86131 0.421361 -0.966403 
1 -2.40947 -0.0399768 1.08507 
1 -3.13443 3.03294 -1.49071 
1 0.1499 0.539882 -3.54893 
1 2.10232 0.851221 2.79597 
1 1.47921 -0.830015 -3.52872 
1 -0.594012 -1.1896 3.60084 
1 0.33019 0.367723 -2.51706 
1 -0.87082 -1.26104 -0.837871 
1 0.0781956 -0.329767 1.27565 
1 3.13926 -3.4356 -0.122655 
1 -1.48724 3.62993 1.77636 
1 2.47822 -0.332551 -3.5707 
1 3.48056 -2.67701 -1.96353 
1 1.0646 3.09081 1.54883 
1 0.628914 3.302 -0.298119 
1 -3.60055 -2.32421 0.932406 
1 0.977046 -3.6763 2.4665 
1 -1.43621 -3.52543 -2.17648 
1 1.69822 0.612319 0.616565 
1 -3.49599 1.56423 2.99616 
1 3.58691 -2.32049 2.98218 
1 -1.16043 1.42031 0.513694 
1 -0.577081 -0.608814 -2.30611 
1 2.43226 2.52609 2.90621 
1 -1.43772 2.17598 3.32312 
1 1.86713 1.79835 2.37585 
1 0.464246 -2.13246 3.26776 
1 2.85054 -0.505655 -0.0391348 
1 -1.32652 -0.739812 -1.60486 
1 2.83883 -3.428 2.58984 
1 -1.86393 -1.70017 -1.24716 
1 2.77666 -1.71036 2.95569 
1 -3.64772 0.139917 -3.14553 
1 2.12811 -0.226395 -1.65438 
1 1.22782 -0.0808734 -0.130764 
1 2.86806 3.35225 3.39731 
1 -1.09495 -2.1334 -3.5392 
1 0.0384972 -2.18939 -2.24542 
1 -3.63482 -1.27465 3.24408 
1 -3.40989 -3.08462 -0.539464 
1 -1.98609 -0.724849 -0.801913 
1 -2.83963 -1.39916 -0.949361 
1 -2.46647 3.60992 1.24178 
1 0.0562782 1.62593 1.32573 
1 -0.191489 1.21883 -0.894803 
1 0.306515 -2.4701 -3.21984 
1 0.987981 -1.82117 1.56916 
1 -0.396835 0.772694 0.859464 
1 -1.87388 0.872674 -0.111681 
1 -3.1396 -2.21513 -0.0142751 
1 -3.16131 -3.19646 0.487065 
1 1.83408 -3.75018 3.10854 
1 1.48379 -3.59782 -0.460701 
1 0.848039 0.144959 2.73827 
1 -1.78095 0.478333 -2.72818 
1 -1.70173 -1.89412 3.05091 
1 -1.83589 -3.16646 -0.63066 
1 0.323584 -3.5232 -3.2514 
1 -2.14588 2.96195 0.403217 
1 0.63397 1.12297 -1.71524 
1 0.945919 -2.60945 2.31999 
1 1.8295 -2.5372 1.36705 
1 -2.25183 -0.109461 0.034275 
1 -2.92885 -0.405254 -1.3014 
1 1.74374 -0.647578 2.18261 
1 2.84851 -0.0190941 -2.59718 
1 -3.02097 2.58363 3.05388 
1 -1.85553 2.19194 -3.15953 
1 2.91039 1.55573 2.81797 
1 0.971139 1.94991 -2.29899 
1 -0.0385079 0.715213 2.88865 
1 -0.569639 -2.25464 3.03198 
1 -0.921356 2.0957 1.27731 
1 -0.0730083 -1.30891 2.68952 
1 -0.112086 -2.37052 -0.782497 
1 0.417145 2.90146 -3.17494 
1 3.56517 1.19786 0.470257 
1 0.931356 1.95154 -3.38245 
1 0.0462776 1.57124 3.58506 
1 -0.108468 0.316013 -1.44341 
1 -0.812099 -0.22399 -0.707366 
1 -2.12477 -2.49569 -3.50904 
1 -0.661448 3.41371 2.42813 
1 -2.28119 -2.10125 -2.35631 
1 -0.0415817 2.61735 1.71569 
1 -0.963237 2.52096 -2.7079 
1 -0.843491 0.738766 -0.201837 
1 1.91629 2.38752 -1.89616 
1 -1.96009 -2.24747 -0.115815 
1 1.55455 -2.88079 0.361841 
1 -3.02907 -1.30019 2.25205 
1 0.393595 -0.593507 0.269461 
1 -1.98277 0.113398 3.13798 
1 -1.72728 3.30427 -2.9815 
1 2.09933 -0.131821 1.24774 
1 3.60121 3.14943 -2.24996 
1 1.82044 0.166453 -2.75346 
1 -2.23713 -3.23181 2.31638 
1 -2.16696 3.63144 -1.35497 
1 -0.690555 -1.05221 0.870244 
1 0.901525 -0.511706 -2.73314 
1 2.57556 -2.71871 3.32263 
1 -0.391149 3.11528 -0.096179 
1 -3.48654 0.458832 -1.45677 
1 -0.166126 3.47882 3.38642 
1 -3.41327 0.549608 1.18643 
1 -1.0658 3.56043 -1.12594 
1 -0.406002 -3.48986 0.500439 
1 1.99863 0.683727 -3.64136 
1 1.8386 -1.28421 3.11451 
1 -1.67161 1.5266 1.7815 
1 0.93782 2.38071 -1.29024 
1 1.54032 -1.82044 0.557042 
1 -2.99813 1.38036 -1.78423 
1 -3.39221 1.80837 -2.74406 
1 -3.09182 -3.00309 2.91402 
1 -1.59907 -0.643375 1.34534 
1 -2.01096 0.953616 -1.8015 
1 0.981494 -1.55523 2.58453 
1 2.67192 0.593729 0.227353 
1 2.85822 2.84993 -1.49912 
1 1.96223 -1.3141 1.38605 
1 -2.10339 -0.0983327 -1.88128 
1 -2.55598 1.8004 3.57997 
1 -2.53345 3.67672 -0.290161 
1 -1.66989 3.048 2.65729 
1 -3.46193 -3.38718 -2.5584 
1 -2.42444 1.36406 -2.76545 
1 1.50393 2.8504 2.52377 
1 0.124451 -3.50837 -1.75153 
1 1.17499 0.998703 -2.91097 
1 0.219881 0.625241 1.7988 
1 1.10512 2.393 -0.226779 
1 2.49593 0.265497 -0.762373 
1 1.08514 0.119853 -3.58239 
1 2.58117 2.47108 -3.48721 
1 -2.5319 -1.5373 -3.2207 
1 -0.476028 -2.99855 -3.69457 
1 -2.33715 -3.14604 -2.65257 
1 -2.78165 0.813466 3.13654 
1 -1.66587 0.290015 -0.982488 
1 3.05774 0.623212 -3.69812 
1 0.207178 3.63255 1.84116 
1 3.7675 -0.761599 -0.528045 
1 1.76387 1.19202 -1.91581 
1 -2.39539 -1.32078 0.0133174 
1 -2.94001 -3.09159 -1.70244 
1 2.81649 -0.953628 0.943166 
1 0.0806842 -1.45317 -0.349585 
1 0.133326 1.62229 2.38823 
1 1.798 2.83131 0.832941 
1 -0.90719 -1.75191 0.0714219 
1 -0.85432 0.801809 3.66723 
1 -0.0511255 -0.49461 -3.19816 
1 -0.296705 -3.4181 -0.654332 
1 1.9676 -2.984 -2.28761 
1 0.174831 -0.498491 -0.769972 
1 1.79596 1.82576 -0.924512 
1 2.65411 1.75025 -1.54468 
1 -1.06733 1.32145 -1.47749 
1 1.13367 -1.19328 -0.237942 
1 -1.79311 0.469171 1.82286 
1 1.21386 3.63277 0.57902 
1 -1.40534 -0.728475 2.94759 
1 2.49971 -2.14442 -1.61812 
1 3.59822 0.918062 -2.39874 
1 2.90281 -1.39483 1.95907 
1 -2.09509 -3.16773 0.523075 
1 2.70109 1.45034 -0.474205 
1 0.986731 -2.64348 -1.96698 
1 3.18965 -2.39359 0.0885972 
1 -0.715096 -2.87574 -1.59398 
1 -0.792384 1.48008 2.87446 
1 3.62976 -0.626178 2.40178 
1 -1.67565 -1.54305 0.742213 
1 2.52675 3.05902 -2.60603 
1 3.40613 -3.12137 1.51903 
1 -0.503958 -1.53591 -2.8624 
1 -1.05933 0.362673 2.62482 
1 -3.27586 -2.2656 -2.87217 
1 -1.41505 -0.161251 -3.4857 
1 -3.10111 -0.702879 -3.4787 
1 -1.20754 3.53022 3.45875 
1 1.0122 3.45961 -1.28338 
1 -3.08732 -0.697589 0.432821 
1 -1.40103 -3.21569 -3.23528 
1 2.30317 -2.41892 -3.15948 
1 0.696033 -0.694059 2.10395 
1 2.56569 1.01373 -2.75626 
1 -2.52609 -2.21227 2.38899 
1 1.84624 -1.27543 -1.55529 
1 -2.76113 2.56826 1.19406 
1 2.02392 -0.700483 -0.630987 
2 1.66057 0.069675 -0.934669 
2 0.410882 -3.01081 -2.51363 
2 -0.914527 -0.795968 -3.12675 
2 3.64485 -0.693002 0.885857 
2 2.46651 3.41321 1.09042 
2 -3.32575 3.28241 -2.92389 
2 1.86202 3.66759 -2.67104 
2 -0.306794 1.13158 -3.11945 
2 -1.62031 -1.47726 -0.407881 
2 1.76469 -3.38346 1.02811 
2 -1.28918 2.78934 -3.5226 
2 -0.753765 1.86708 -2.16344 
2 0.187713 -2.65621 -1.54613 
2 2.63608 0.158977 3.12516 
2 -3.12913 -1.56676 0.703868 
2 -3.5308 0.421324 3.45399 
2 -2.49661 3.59975 -3.29165 
2 1.30175 -0.672874 -1.97345 
2 1.3298 -0.145407 0.75167 
2 -1.42057 0.0821978 -0.166259 
2 -1.6318 3.5632 0.8942 
2 2.2342 1.05829 -1.14218 
2 2.0847 -0.00504566 -0.00785454 
2 -0.705814 -3.65948 1.60483 
2 2.7244 -2.53988 -2.39802 
2 1.26999 -1.29588 -2.83228 
2 2.9813 -1.07618 3.55844 
2 2.58728 -3.02055 -1.60173 
2 -0.534557 -0.896187 -0.0890573 
2 1.6206 3.08272 -0.0299128 
2 0.629741 2.95492 2.32496 
2 -3.39864 2.02428 -3.66663 
2 1.60139 -2.12613 -1.56538 
2 -1.26054 1.0136 -2.26673 
2 -3.04145 2.16579 -1.3256 
2 -0.840874 0.594295 -1.05899 
2 -2.99466 0.176442 0.483364 
2 -2.37673 0.464336 2.45598 
2 2.72017 -2.06944 -0.631767 
2 3.33979 -1.88984 -1.57967 
2 -1.74284 -1.87925 -3.02131 
2 3.4449 -3.05583 0.628822 
2 -1.47126 -0.287517 2.16482 
2 2.27555 -2.34052 0.425612 
2 2.20032 -1.955 3.57041 
2 0.890248 -2.12081 -2.67574 
2 -1.24919 0.887157 1.23355 
2 -1.42313 -0.307773 -2.467 
2 -0.728593 -3.3645 3.01352 
2 2.78583 0.955488 2.16134 
2 0.176887 -1.0599 -2.51424 
2 1.27326 2.96335 -1.93456 
2 -2.63479 0.661684 1.55727 
2 -2.30124 2.75631 -1.37049 
2 -2.59099 -2.90327 -0.166488 
2 -2.40341 1.98068 1.71253 
2 -1.61359 -2.4256 0.703973 
2 -3.42731 -3.65567 1.1807 
2 -1.51802 -3.59081 2.63985 
2 0.108953 3.53855 -2.54995 
2 -3.49898 -2.57596 -1.22674 
2 -2.29777 -2.66122 3.1115 
2 3.57834 1.53233 -0.363744 
2 1.00694 -1.43169 3.45528 
2 -2.78404 -0.652695 -0.438466 
2 -2.84975 -0.44325 -2.23149 
2 0.374008 2.40922 3.56631 
2 -2.12051 -0.749101 0.624552 
2 0.432341 1.27662 -2.55694 
2 3.59344 -3.00988 2.42477 
2 -0.519222 -2.4098 -2.93865 
2 -0.432253 1.53289 -0.0455665 
2 -3.06791 -3.69151 -1.05832 
2 3.59705 -1.57724 2.4527 
2 -0.21331 -1.93363 -3.66832 
2 -2.02 -3.15781 1.43829 
2 0.392032 -3.42632 0.899337 
2 1.43058 -2.70519 -0.494397 
2 -2.22714 -0.512193 3.7322 
2 -2.86731 3.57163 2.86599 
2 2.60736 2.28601 -0.821509 
2 -1.75104 1.17376 -0.932845 
2 0.0440477 -2.12008 1.23125 
2 -3.43053 -1.53407 -3.38163 
2 0.973057 0.785062 -0.00592755 
2 -3.24601 -1.39324 -0.188729 
2 -0.86479 2.82334 3.05304 
2 -1.27539 -1.45709 1.49364 
2 2.5303 -0.654822 1.77735 
2 -0.440377 -0.581631 -1.42691 
2 -0.81811 1.69705 3.72016 
2 2.52791 -3.20769 1.73025 
2 2.39858 3.3002 2.47588 
2 2.80716 -0.0862367 0.755672 
2 1.64612 0.268548 2.31281 
2 -1.67452 -2.52774 2.40289 
2 -0.943497 -1.45905 2.83528 
2 -0.819493 2.55694 -0.590663 
2 -2.86177 -1.95077 1.57989 
2 -3.62654 -2.51696 -3.67295 
