ITEM: TIMESTEP
477
ITEM: NUMBER OF ATOMS
500
ITEM: BOX BOUNDS xy xz yz pp pp pp
-3.7345 3.8316 0.097097
-3.7345 3.7345 0
-3.7345 3.7345 0
ITEM: ATOMS type xu yu zu 
1 3.25329 -1.88473 -3.57045 
1 -1.61188 -1.18895 -3.58159 
1 -2.93811 -2.07028 3.43282 
1 2.83639 -1.27732 -1.00197 
1 0.9556 2.04898 2.99065 
1 3.26364 2.45937 2.20565 
1 2.66597 -0.687888 2.81551 
1 -0.555804 3.24674 -2.04844 
1 2.81219 0.668733 -1.7148 
1 -3.06348 1.6245 -0.650223 
1 0.881142 -3.12777 3.39545 
1 0.74135 -3.00314 -0.975851 
1 -1.20569 2.4803 0.234825 
1 -1.01921 -1.97444 2.14265 
1 -2.58786 0.258713 -3.44295 
1 -2.52977 -1.20437 1.26207 
1 -1.43609 -2.89872 3.17939 
1 -0.698346 0.326322 -2.86035 
1 1.03479 -0.855424 1.08849 
1 0.384756 -0.502037 -1.85059 
1 1.40575 3.60218 -3.43029 
1 3.63351 2.35044 -0.833985 
1 -1.97057 1.98857 0.86479 
1 -1.38941 -0.764304 0.0834921 
1 3.7346 2.19287 -1.85543 
1 2.90808 3.01521 -0.382089 
1 1.16052 0.142074 1.60478 
1 1.55315 -2.34261 3.13695 
1 -0.589382 3.4183 -3.11925 
1 3.21451 -0.267373 -1.27949 
1 0.825021 -2.19953 -0.134539 
1 -2.0883 0.964303 0.931337 
1 -0.0130195 -1.38572 -1.46669 
1 1.09726 1.07227 2.31189 
1 1.9125 1.83955 -2.89498 
1 1.892 -0.752617 0.430944 
1 2.5026 -1.55475 0.0563869 
1 1.77061 -1.92189 -2.40823 
1 -3.20849 0.346518 2.20201 
1 -0.820912 3.16332 1.02209 
1 -1.82927 -2.30244 1.56321 
1 -3.17078 -2.00739 -1.79708 
1 -2.66158 1.2573 2.18449 
1 -3.29677 1.09169 -3.47298 
1 2.73781 1.70349 1.69319 
1 0.849627 -1.92469 -1.14704 
1 0.538009 -0.701407 3.34311 
1 -0.865651 -0.925917 2.0602 
1 3.78221 -0.286863 -2.18473 
1 3.25781 -0.20051 1.5086 
1 -0.835947 0.0833107 1.58056 
1 0.524459 -3.18106 0.0351412 
1 -1.13446 1.73884 -0.535556 
1 -0.350675 1.08992 -2.21063 
1 -2.21369 -0.546746 -2.84949 
1 3.4432 -0.304794 3.42564 
1 -0.919653 -1.79469 -1.79018 
1 3.25484 1.638 -3.51018 
1 0.0486734 -3.14694 2.704 
1 -1.28172 -2.45731 -2.51462 
1 -3.20672 3.39587 3.67678 
1 -1.06534 0.264098 -1.86117 
1 -3.26865 -1.20994 -2.53928 
1 1.97603 3.52291 -1.80674 
1 -0.955553 2.33548 2.30248 
1 1.91302 2.91015 -0.895464 
1 0.931772 2.11643 1.91414 
1 -2.14986 1.89592 -1.22525 
1 1.04387 1.05666 3.39707 
1 1.97398 0.892607 1.70094 
1 2.93394 2.04983 -2.53984 
1 -0.15643 -2.43738 0.336918 
1 -0.953386 -3.03002 2.19737 
1 3.67684 -1.86375 -0.746726 
1 1.77211 1.88523 1.28324 
1 1.73282 0.845029 -0.445918 
1 3.33037 3.54799 0.794479 
1 -2.6042 3.06201 2.18288 
1 2.54126 0.12823 2.20042 
1 1.20713 0.209293 -1.91248 
1 -2.12159 1.89569 -0.158415 
1 0.157273 0.436684 -0.222201 
1 -0.159689 -0.217701 2.37483 
1 -1.32035 3.57982 0.0536565 
1 -1.77213 2.64467 1.64266 
1 3.3769 3.62335 -3.18133 
1 -1.84898 1.04021 -3.63784 
1 2.25667 2.65343 1.83017 
1 -0.497 -0.172385 3.37455 
1 -0.0343472 3.04379 -1.13877 
1 -0.94264 2.39382 -1.43861 
1 -1.20774 -3.13033 1.10782 
1 3.49405 -3.2673 3.42733 
1 0.867634 -1.4477 -2.09162 
1 3.35674 -0.882866 -3.1119 
1 3.60957 0.0492119 0.409002 
1 -3.5536 3.06326 1.57933 
1 0.281452 3.17598 0.815956 
1 -0.019751 2.57975 2.79983 
1 -0.0458295 1.95274 -2.81838 
1 -2.14042 2.92629 3.57915 
1 -3.54395 3.33337 -0.525004 
1 2.29264 3.60801 0.261232 
1 -2.8131 2.60827 -3.16308 
1 -2.50102 -2.17154 0.779672 
1 -1.67309 2.92198 -1.98167 
1 2.85984 -0.959729 -2.04075 
1 2.983 3.4227 1.78524 
1 -1.15779 -2.31727 -0.819096 
1 1.83117 -1.9271 -0.697744 
1 2.30506 -2.81521 -0.337903 
1 1.62864 2.66018 3.62149 
1 3.24996 -1.8114 -2.5018 
1 2.52543 -3.65824 -1.00524 
1 2.86578 -2.45908 2.15303 
1 2.80617 -2.04265 1.08597 
1 0.79724 3.14525 3.24896 
1 -0.468262 2.49747 -3.68656 
1 -0.706347 1.11579 1.8848 
1 -3.02335 -3.10846 -3.4751 
1 -3.68316 -1.13358 -1.54649 
1 -1.78774 1.12363 2.77223 
1 -3.67218 -1.39594 1.40231 
1 2.29624 -3.46645 -3.31226 
1 -0.174819 -2.95757 1.38214 
1 0.724022 -2.54964 0.882562 
1 0.377715 1.36594 0.30542 
1 -1.07204 1.465 -2.96729 
1 2.39028 -1.36459 -3.30052 
1 -0.454455 -3.18226 -2.58005 
1 -1.46758 -1.22654 -2.52798 
1 -2.82503 -2.8447 1.47587 
1 -2.39528 -1.12679 -1.92943 
1 2.19002 2.32784 -0.0276796 
1 -0.000934232 -1.33705 1.61005 
1 0.632525 0.366161 0.70195 
1 3.55685 1.36697 -1.23859 
1 1.94676 -0.832695 -2.53545 
1 -2.8643 0.438564 -2.39586 
1 -2.93674 1.49547 1.1981 
1 -3.22071 -0.468409 1.52398 
1 3.57077 -3.60505 -1.42722 
1 0.836907 2.25554 0.83442 
1 1.41123 -1.92241 -3.40851 
1 -2.63331 -2.44068 -0.928031 
1 -2.73687 2.64817 -0.588783 
1 2.57412 -3.07276 0.836946 
1 -1.62997 1.86862 -2.16436 
1 1.24688 -2.8964 -3.02076 
1 2.54148 1.55951 0.633221 
1 1.96163 3.64967 1.77867 
1 0.382596 -1.56631 0.646249 
1 -0.538228 -0.140404 0.339609 
1 -3.11126 2.09899 0.302682 
1 -2.60546 3.35966 -2.37892 
1 0.946898 -3.72902 -2.37319 
1 -0.207536 2.24318 0.503017 
1 -3.54754 -2.28256 2.00888 
1 1.94746 -1.90047 2.24396 
1 -1.67915 2.78814 -0.704703 
1 3.36948 0.555606 2.75428 
1 3.6555 2.05804 1.19338 
1 -2.61015 2.31959 -2.12514 
1 1.80184 -0.130063 3.11721 
1 -3.15432 0.125095 -0.390375 
1 0.00171682 1.97801 -1.67607 
1 3.29528 2.17925 0.141285 
1 3.74345 3.31667 2.70398 
1 1.00395 -3.30148 1.49739 
1 0.441026 2.86009 -2.11117 
1 1.46225 2.80781 -2.76926 
1 0.0270351 2.18052 -0.527629 
1 3.60374 2.62338 -3.18884 
1 -2.56886 0.774634 -0.947247 
1 1.00876 1.1832 1.23609 
1 -3.27472 -3.54691 2.06459 
1 -3.19359 2.15827 2.09407 
1 1.93302 -2.97422 2.3776 
1 2.87193 -3.48357 -2.27038 
1 3.44892 0.654152 -0.494658 
1 3.27889 -2.8036 -3.05172 
1 -2.27263 -3.52335 3.37376 
1 -2.17117 2.12237 2.56083 
1 2.81613 2.62122 0.949256 
1 1.77773 -2.92353 -1.26421 
1 -1.43334 0.206349 0.696004 
1 3.67384 1.24516 1.961 
1 -1.10883 -2.83807 0.0923571 
1 -3.19304 3.20471 0.478598 
1 -2.88577 0.999154 0.202232 
1 0.00783936 -2.23642 2.12767 
1 1.13843 -0.618179 -1.13413 
1 2.94038 0.745276 1.25926 
1 -2.35477 -0.385707 2.18832 
1 1.46479 1.56472 0.282223 
1 -1.89084 -1.34749 2.14125 
1 1.99528 1.68551 3.47454 
1 3.54766 -1.41177 0.33305 
1 0.84044 1.43978 -0.656818 
1 -2.44346 -1.13159 3.15015 
1 3.44072 2.43508 3.26511 
1 -0.828954 -2.12094 1.1037 
1 -1.84802 -2.74015 -1.60927 
1 -3.0115 -0.229353 3.05859 
1 0.49599 -1.42425 -3.27015 
1 3.14074 -2.7439 -0.972607 
1 0.867259 0.421515 -0.959313 
1 -2.40552 -0.0394084 1.08542 
1 -3.12256 3.03056 -1.49357 
1 0.16261 0.536092 -3.55189 
1 2.11663 0.854641 2.80034 
1 1.4849 -0.836135 -3.53061 
1 -0.588145 -1.1918 3.6004 
1 0.3425 0.36812 -2.51947 
1 -0.864878 -1.26368 -0.838376 
1 0.0791085 -0.33417 1.26758 
1 3.13958 -3.43512 -0.122692 
1 -1.47082 3.62887 1.77715 
1 2.4849 -0.331986 -3.56646 
1 3.48365 -2.67474 -1.95907 
1 1.0792 3.08829 1.54867 
1 0.638253 3.30578 -0.296027 
1 -3.60253 -2.32376 0.934511 
1 0.983799 -3.67208 2.46799 
1 -1.43377 -3.52814 -2.17643 
1 1.71244 0.620089 0.619172 
1 -3.48733 1.56005 2.99585 
1 3.59197 -2.31456 2.9846 
1 -1.15378 1.41878 0.514459 
1 -0.568857 -0.611797 -2.30863 
1 2.44041 2.53326 2.90492 
1 -1.42698 2.17112 3.32411 
1 1.87765 1.79977 2.3749 
1 0.46384 -2.1367 3.26284 
1 2.86095 -0.508504 -0.0415874 
1 -1.31808 -0.742996 -1.60676 
1 2.84473 -3.43215 2.59004 
1 -1.86062 -1.70244 -1.24781 
1 2.77902 -1.70772 2.96149 
1 -3.63407 0.139239 -3.14376 
1 2.13721 -0.223025 -1.65395 
1 1.23682 -0.0807927 -0.124799 
1 2.89259 3.35185 3.39891 
1 -1.09164 -2.13548 -3.53887 
1 0.0437728 -2.19025 -2.2476 
1 -3.62883 -1.27087 3.24374 
1 -3.40579 -3.0872 -0.541255 
1 -1.98008 -0.725363 -0.806064 
1 -2.83568 -1.39932 -0.949565 
1 -2.45238 3.60961 1.24768 
1 0.0627469 1.62399 1.32484 
1 -0.180193 1.21624 -0.892993 
1 0.31297 -2.47182 -3.22188 
1 0.98683 -1.80843 1.56482 
1 -0.388656 0.76952 0.857324 
1 -1.86869 0.870997 -0.110067 
1 -3.13945 -2.21762 -0.0124131 
1 -3.16342 -3.19527 0.487317 
1 1.83787 -3.76453 3.11121 
1 1.48571 -3.59669 -0.464792 
1 0.85871 0.133887 2.72879 
1 -1.76962 0.476209 -2.72806 
1 -1.69946 -1.89656 3.05192 
1 -1.83519 -3.16724 -0.630351 
1 0.325136 -3.5246 -3.2528 
1 -2.13401 2.96248 0.408763 
1 0.646252 1.1223 -1.71235 
1 0.954222 -2.60624 2.30588 
1 1.81948 -2.54691 1.3764 
1 -2.24435 -0.112286 0.0335141 
1 -2.92315 -0.406418 -1.30398 
1 1.7498 -0.633727 2.18801 
1 2.86347 -0.0104538 -2.60125 
1 -3.00964 2.57838 3.06169 
1 -1.84436 2.19132 -3.15816 
1 2.91974 1.56394 2.8108 
1 0.985224 1.94624 -2.29871 
1 -0.0249985 0.709983 2.8851 
1 -0.569161 -2.25627 3.03194 
1 -0.914671 2.09733 1.27612 
1 -0.0703151 -1.31038 2.68839 
1 -0.108979 -2.37426 -0.779288 
1 0.428225 2.90015 -3.17718 
1 3.57272 1.20037 0.472611 
1 0.939368 1.94895 -3.38244 
1 0.0585457 1.56799 3.58149 
1 -0.0973296 0.318328 -1.44882 
1 -0.806789 -0.227085 -0.708185 
1 -2.12452 -2.49895 -3.50578 
1 -0.650164 3.40992 2.43134 
1 -2.27413 -2.1001 -2.35486 
1 -0.0338167 2.61623 1.71424 
1 -0.950851 2.51879 -2.70856 
1 -0.838738 0.739432 -0.204649 
1 1.93051 2.38784 -1.89959 
1 -1.95795 -2.24869 -0.113738 
1 1.55853 -2.87911 0.359838 
1 -3.02481 -1.30024 2.25331 
1 0.388524 -0.59129 0.258263 
1 -1.97508 0.113141 3.13561 
1 -1.71306 3.30387 -2.98256 
1 2.11509 -0.124961 1.25126 
1 3.61122 3.14432 -2.25321 
1 1.83404 0.176775 -2.74077 
1 -2.23727 -3.23499 2.32039 
1 -2.1504 3.62918 -1.3543 
1 -0.691027 -1.05133 0.86964 
1 0.910985 -0.513307 -2.7332 
1 2.57019 -2.71582 3.31531 
1 -0.380799 3.11343 -0.0974812 
1 -3.47613 0.460549 -1.45748 
1 -0.15345 3.47529 3.38845 
1 -3.40519 0.548855 1.18431 
1 -1.04935 3.55746 -1.12475 
1 -0.40414 -3.49014 0.492432 
1 2.01103 0.68751 -3.63418 
1 1.84101 -1.2789 3.10615 
1 -1.66364 1.52688 1.7816 
1 0.949738 2.37786 -1.29184 
1 1.55083 -1.81908 0.563987 
1 -2.98696 1.38039 -1.78624 
1 -3.38153 1.81483 -2.74863 
1 -3.08963 -3.00099 2.92208 
1 -1.59649 -0.643679 1.34823 
1 -1.9998 0.952589 -1.80213 
1 0.981534 -1.55429 2.58318 
1 2.68361 0.593005 0.226813 
1 2.86962 2.84874 -1.50323 
1 1.96082 -1.29827 1.39208 
1 -2.09433 -0.0991153 -1.87976 
1 -2.54465 1.79588 3.58459 
1 -2.51702 3.67523 -0.287858 
1 -1.65863 3.04776 2.65657 
1 -3.46227 -3.3899 -2.54807 
1 -2.41493 1.3626 -2.76766 
1 1.51163 2.8471 2.52277 
1 0.122582 -3.51113 -1.75004 
1 1.18421 1.00041 -2.9119 
1 0.228629 0.621234 1.79464 
1 1.11612 2.39718 -0.228838 
1 2.5045 0.26567 -0.762782 
1 1.09978 0.118528 -3.57623 
1 2.59126 2.47674 -3.48979 
1 -2.52377 -1.53623 -3.21957 
1 -0.473617 -2.99944 -3.694 
1 -2.33534 -3.14587 -2.64655 
1 -2.77221 0.813115 3.13835 
1 -1.65686 0.290589 -0.981336 
1 3.06894 0.624306 -3.68941 
1 0.221062 3.6283 1.85549 
1 3.77823 -0.762311 -0.527968 
1 1.77575 1.18602 -1.91919 
1 -2.38668 -1.31898 0.0109086 
1 -2.93868 -3.0922 -1.69501 
1 2.82337 -0.957714 0.94635 
1 0.090081 -1.45074 -0.361166 
1 0.141938 1.61906 2.38679 
1 1.80334 2.82583 0.823449 
1 -0.898896 -1.75273 0.0718752 
1 -0.840524 0.797461 3.66669 
1 -0.0416606 -0.497353 -3.19995 
1 -0.29194 -3.42221 -0.657859 
1 1.97466 -2.97828 -2.28705 
1 0.180212 -0.494193 -0.777934 
1 1.80753 1.82405 -0.92916 
1 2.66557 1.74644 -1.55031 
1 -1.05577 1.31819 -1.47697 
1 1.14264 -1.18793 -0.227758 
1 -1.78726 0.469283 1.82385 
1 1.22757 3.63341 0.572843 
1 -1.39964 -0.729106 2.95047 
1 2.50264 -2.14175 -1.61182 
1 3.6132 0.922208 -2.39966 
1 2.90302 -1.39591 1.96308 
1 -2.09633 -3.1671 0.527757 
1 2.71218 1.44922 -0.477341 
1 0.990076 -2.64259 -1.96806 
1 3.18854 -2.39336 0.0905963 
1 -0.715176 -2.87826 -1.59289 
1 -0.7826 1.47445 2.87346 
1 3.6336 -0.624239 2.40058 
1 -1.67048 -1.54425 0.742164 
1 2.53334 3.07021 -2.61219 
1 3.4035 -3.12118 1.52203 
1 -0.497325 -1.53787 -2.86429 
1 -1.04878 0.360508 2.62423 
1 -3.267 -2.26255 -2.87192 
1 -1.40375 -0.16086 -3.48917 
1 -3.09066 -0.701836 -3.48006 
1 -1.19347 3.52754 3.45848 
1 1.02318 3.45595 -1.28079 
1 -3.08015 -0.699003 0.432858 
1 -1.39948 -3.21784 -3.23555 
1 2.31249 -2.41882 -3.16168 
1 0.70436 -0.701795 2.08372 
1 2.58166 1.02365 -2.75067 
1 -2.52342 -2.21418 2.3895 
1 1.85548 -1.27155 -1.55626 
1 -2.75388 2.5689 1.19769 
1 2.03067 -0.698738 -0.629673 
2 1.66718 0.0700895 -0.933645 
2 0.412954 -3.01137 -2.51397 
2 -0.907145 -0.797122 -3.12761 
2 3.65091 -0.694128 0.884267 
2 2.46833 3.40827 1.09054 
2 -3.3128 3.28471 -2.92352 
2 1.8717 3.68054 -2.67195 
2 -0.293089 1.12818 -3.12023 
2 -1.61351 -1.48204 -0.409973 
2 1.75691 -3.38409 1.02703 
2 -1.27738 2.78644 -3.52324 
2 -0.741801 1.86545 -2.16346 
2 0.186477 -2.65752 -1.5473 
2 2.6487 0.161408 3.13066 
2 -3.12911 -1.56591 0.708743 
2 -3.52106 0.421861 3.45626 
2 -2.48462 3.59116 -3.29311 
2 1.30882 -0.674227 -1.97209 
2 1.35105 -0.13853 0.757002 
2 -1.41228 0.0805826 -0.164093 
2 -1.61931 3.56313 0.896116 
2 2.2442 1.05593 -1.14413 
2 2.09453 -0.00249879 -0.00905316 
2 -0.703654 -3.66382 1.60664 
2 2.72908 -2.53013 -2.39522 
2 1.27885 -1.29737 -2.83075 
2 2.98924 -1.07302 3.56093 
2 2.59225 -3.01559 -1.60024 
2 -0.526929 -0.90009 -0.0870326 
2 1.63615 3.08398 -0.0365629 
2 0.641194 2.95079 2.32449 
2 -3.38811 2.02492 -3.6711 
2 1.60118 -2.12 -1.56632 
2 -1.24867 1.01135 -2.26706 
2 -3.02852 2.16452 -1.3269 
2 -0.829425 0.590282 -1.06024 
2 -2.98657 0.175569 0.480304 
2 -2.37268 0.463404 2.45549 
2 2.72153 -2.06748 -0.636051 
2 3.34252 -1.88907 -1.57475 
2 -1.73794 -1.88163 -3.02163 
2 3.44131 -3.05614 0.631637 
2 -1.46847 -0.286614 2.1681 
2 2.28219 -2.3413 0.420018 
2 2.19604 -1.95143 3.57024 
2 0.89642 -2.12209 -2.67638 
2 -1.24314 0.885509 1.23342 
2 -1.41468 -0.310867 -2.46535 
2 -0.725474 -3.36588 3.0136 
2 2.79601 0.960943 2.15922 
2 0.184991 -1.06369 -2.51411 
2 1.28632 2.96245 -1.93255 
2 -2.62892 0.662706 1.55862 
2 -2.28867 2.75512 -1.37283 
2 -2.58918 -2.90449 -0.164748 
2 -2.39657 1.98057 1.71524 
2 -1.6118 -2.42702 0.70614 
2 -3.42761 -3.65108 1.18332 
2 -1.51548 -3.59195 2.63977 
2 0.124875 3.53694 -2.55033 
2 -3.49455 -2.56995 -1.22256 
2 -2.29372 -2.66027 3.11305 
2 3.58966 1.53101 -0.362736 
2 1.01584 -1.44352 3.45466 
2 -2.77708 -0.653173 -0.440255 
2 -2.84018 -0.442527 -2.23359 
2 0.385617 2.40836 3.56426 
2 -2.11406 -0.749561 0.625793 
2 0.443383 1.27614 -2.55355 
2 3.59519 -3.006 2.43091 
2 -0.513814 -2.41193 -2.93952 
2 -0.424354 1.53165 -0.0426614 
2 -3.06623 -3.69839 -1.05651 
2 3.60124 -1.57474 2.45237 
2 -0.209237 -1.9365 -3.669 
2 -2.01689 -3.15806 1.44221 
2 0.392733 -3.42038 0.882973 
2 1.4302 -2.70375 -0.495855 
2 -2.2166 -0.510882 3.73175 
2 -2.84874 3.57628 2.87007 
2 2.62088 2.28427 -0.826946 
2 -1.73987 1.17352 -0.930874 
2 0.0471126 -2.12488 1.23311 
2 -3.42058 -1.53143 -3.38239 
2 0.980763 0.784406 -0.00655014 
2 -3.23743 -1.39436 -0.1858 
2 -0.854996 2.8181 3.0533 
2 -1.27133 -1.45714 1.49434 
2 2.53812 -0.651368 1.78414 
2 -0.434516 -0.574772 -1.43181 
2 -0.805305 1.69259 3.71867 
2 2.52451 -3.20273 1.73493 
2 2.41204 3.30228 2.46925 
2 2.81586 -0.0915243 0.750197 
2 1.65872 0.276285 2.31498 
2 -1.67138 -2.53163 2.40222 
2 -0.94107 -1.46085 2.8361 
2 -0.808897 2.55607 -0.591823 
2 -2.85881 -1.94987 1.58196 
2 -3.61885 -2.51517 -3.67204 
