ITEM: TIMESTEP
387
ITEM: NUMBER OF ATOMS
500
ITEM: BOX BOUNDS xy xz yz pp pp pp
-3.7345 3.82413 0.089628
-3.7345 3.7345 0
-3.7345 3.7345 0
ITEM: ATOMS type xu yu zu 
1 0.0400423 -2.18939 -2.24542 
1 -0.920114 -1.78928 -1.79087 
1 -0.501759 -1.53591 -2.8624 
1 -1.28478 -2.4541 -2.51371 
2 -1.74098 -1.87925 -3.02131 
1 -3.27509 -1.21229 -2.53915 
1 -1.15891 -2.31626 -0.820835 
1 -3.27439 -2.2656 -2.87217 
1 -0.714238 -2.87574 -1.59398 
1 -1.47236 -1.2233 -2.52739 
1 -2.27955 -2.10125 -2.35631 
1 -2.83729 -1.39916 -0.949361 
1 -2.5297 -1.5373 -3.2207 
1 -3.09808 -0.702879 -3.4787 
1 -2.33656 -3.14604 -2.65257 
1 -0.110722 -2.37052 -0.782497 
1 -3.17551 -2.00715 -1.7965 
1 -2.40072 -1.12759 -1.92918 
1 -2.63605 -2.44199 -0.930903 
1 -1.84913 -2.7378 -1.60945 
1 -0.573955 -0.608814 -2.30611 
1 -0.868346 -1.26104 -0.837871 
1 -2.22112 -0.547255 -2.84899 
2 -1.61805 -1.47726 -0.407881 
1 -1.86189 -1.70017 -1.24716 
1 -2.93937 -3.09159 -1.70244 
2 -0.517897 -2.4098 -2.93865 
1 -1.32353 -0.739812 -1.60486 
1 -3.46158 -3.38718 -2.5584 
2 -0.911589 -0.795968 -3.12675 
1 -1.98308 -0.724849 -0.801913 
1 -0.456174 -3.18044 -2.58026 
1 -0.0118411 -1.38811 -1.45762 
1 -0.808588 -0.22399 -0.707366 
2 -0.437225 -0.581631 -1.42691 
1 -2.92552 -0.405254 -1.3014 
1 -1.40051 -3.21569 -3.23528 
2 -0.531719 -0.896187 -0.0890573 
2 0.179561 -1.0599 -2.51424 
1 0.178067 -0.498491 -0.769972 
2 -1.41971 -0.307773 -2.467 
2 -2.78096 -0.652695 -0.438466 
1 -1.09335 -2.1334 -3.5392 
1 0.0829656 -1.45317 -0.349585 
2 -3.42833 -1.53407 -3.38163 
2 -3.24366 -1.39324 -0.188729 
1 -1.6165 -1.18854 -3.58242 
1 -1.83532 -3.16646 -0.63066 
1 -3.40924 -3.08462 -0.539464 
1 -0.296388 -3.4181 -0.654332 
2 -2.84646 -0.44325 -2.23149 
1 -1.436 -3.52543 -2.17648 
1 -1.95861 -2.24747 -0.115815 
1 -3.02106 -3.10356 -3.4841 
1 -1.41147 -0.161251 -3.4857 
2 -3.62533 -2.51696 -3.67295 
1 0.124677 -3.50837 -1.75153 
2 -2.59016 -2.90327 -0.166488 
1 -0.0478856 -0.49461 -3.19816 
2 -3.49782 -2.57596 -1.22674 
1 -2.12353 -2.49569 -3.50904 
1 -2.09976 -0.0983327 -1.88128 
2 0.188792 -2.65621 -1.54613 
1 0.307779 -2.4701 -3.21984 
1 0.323796 -3.5232 -3.2514 
1 0.379564 -0.501406 -1.84808 
2 0.411605 -3.01081 -2.51363 
1 0.49038 -1.42161 -3.26993 
1 0.738417 -3.00337 -0.969721 
1 0.819636 -2.20699 -0.138136 
1 0.86122 -1.44511 -2.09258 
1 0.852668 -1.92531 -1.14833 
2 -3.06787 -3.69151 -1.05832 
2 0.891861 -2.12081 -2.67574 
1 0.904748 -0.511706 -2.73314 
1 0.987822 -2.64348 -1.96698 
1 1.13488 -0.616415 -1.13641 
1 1.13621 -1.19328 -0.237942 
1 1.23147 -0.0808734 -0.130764 
2 -0.211509 -1.93363 -3.66832 
1 1.24356 -2.89002 -3.02398 
2 1.27243 -1.29588 -2.83228 
1 -0.475292 -2.99855 -3.69457 
2 1.30482 -0.672874 -1.97345 
1 1.40728 -1.91654 -3.41401 
1 -3.68556 -1.13222 -1.54541 
2 1.43161 -2.70519 -0.494397 
1 -3.13808 -2.21513 -0.0142751 
1 0.95122 -3.72626 -2.37424 
1 1.48212 -0.830015 -3.52872 
1 1.48393 -3.59782 -0.460701 
2 1.603 -2.12613 -1.56538 
1 1.76023 -1.92479 -2.40879 
1 1.77562 -2.92893 -1.26272 
1 1.8487 -1.27543 -1.55529 
1 1.83284 -1.93006 -0.697595 
1 -2.53211 -1.2042 1.26102 
1 -1.82985 -2.30272 1.56289 
1 -0.831052 -2.11894 1.10237 
1 -1.67346 -1.54305 0.742213 
2 0.0456621 -2.12008 1.23125 
2 -2.11752 -0.749101 0.624552 
1 -1.59598 -0.643375 1.34534 
1 -3.59914 -2.32421 0.932406 
2 -1.27311 -1.45709 1.49364 
1 -1.21049 -3.12768 1.10741 
2 -2.85999 -1.95077 1.57989 
2 -1.61228 -2.4256 0.703973 
1 -2.50109 -2.17478 0.779342 
1 -3.08429 -0.697589 0.432821 
1 -0.405757 -3.48986 0.500439 
2 -3.12696 -1.56676 0.703868 
1 -0.687873 -1.05221 0.870244 
1 -2.8276 -2.84614 1.47727 
1 -3.22215 -0.467615 1.52395 
1 -0.179875 -2.95037 1.38424 
1 0.00915292 -1.33211 1.60927 
1 -0.531448 -0.139932 0.342243 
2 -0.705739 -3.65948 1.60483 
1 0.0816003 -0.329767 1.27565 
1 -1.39101 -0.760457 0.0872856 
1 -2.09452 -3.16773 0.523075 
1 -0.905208 -1.75191 0.0714219 
1 -2.40578 -0.0399768 1.08507 
2 -2.01942 -3.15781 1.43829 
1 -3.16077 -3.19646 0.487065 
1 -1.1079 -2.83779 0.0911016 
1 -0.15784 -2.43226 0.33451 
1 -3.67004 -1.39664 1.39884 
1 0.396736 -0.593507 0.269461 
2 0.39234 -3.42632 0.899337 
1 0.518512 -3.18818 0.0429908 
1 0.400067 -1.56925 0.64899 
1 0.718361 -2.55532 0.882916 
1 0.989895 -1.82117 1.56916 
1 1.03771 -0.857695 1.11329 
1 1.01773 -3.29449 1.50222 
2 -3.42724 -3.65567 1.1807 
2 1.33339 -0.145407 0.75167 
1 -2.39297 -1.32078 0.0133174 
1 -2.2482 -0.109461 0.034275 
1 1.5554 -2.88079 0.361841 
1 1.54223 -1.82044 0.557042 
2 1.76504 -3.38346 1.02811 
1 1.87905 -0.757848 0.428576 
1 -3.29931 1.0914 -3.47431 
1 -3.48234 0.458832 -1.45677 
1 -3.38667 1.80837 -2.74406 
1 -3.06932 1.62282 -0.651137 
1 -3.16037 0.12439 -0.387439 
1 -2.99301 1.38036 -1.78423 
1 -2.87162 0.438625 -2.3965 
1 -2.59508 0.257559 -3.44344 
1 -2.57414 0.772565 -0.945874 
1 -2.41934 1.36406 -2.76545 
1 -2.00628 0.953616 -1.8015 
1 -1.85877 1.04276 -3.63723 
1 -1.86927 0.872674 -0.111681 
2 -1.74613 1.17376 -0.932845 
1 -1.77674 0.478333 -2.72818 
1 -1.66184 0.290015 -0.982488 
2 -1.41675 0.0821978 -0.166259 
2 -1.25579 1.0136 -2.26673 
1 -1.13981 1.7389 -0.534909 
1 -1.07994 1.46729 -2.96654 
1 -1.06228 1.32145 -1.47749 
1 -1.07083 0.267288 -1.86137 
1 -3.64384 0.139917 -3.14553 
1 -0.839017 0.738766 -0.201837 
2 -0.836545 0.594295 -1.05899 
1 -0.705639 0.328447 -2.86065 
2 -0.426986 1.53289 -0.0455665 
1 -0.356905 1.09139 -2.21005 
2 -0.301928 1.13158 -3.11945 
1 -0.186536 1.21883 -0.894803 
1 -0.104418 0.316013 -1.44341 
1 0.154174 0.539882 -3.54893 
1 0.15717 0.438457 -0.227898 
1 0.334292 0.367723 -2.51706 
2 0.437352 1.27662 -2.55694 
1 0.638827 1.12297 -1.71524 
1 0.834728 1.43771 -0.658186 
1 0.865466 0.421361 -0.966403 
1 1.089 0.119853 -3.58239 
1 1.17973 0.998703 -2.91097 
1 1.20565 0.211839 -1.91943 
2 1.66438 0.069675 -0.934669 
1 1.72788 0.844586 -0.44699 
1 1.7688 1.19202 -1.91581 
1 1.80152 1.82576 -0.924512 
1 1.82434 0.166453 -2.75346 
1 1.90691 1.83788 -2.89095 
1 -3.40898 0.549608 1.18643 
1 -2.93693 1.49435 1.19609 
1 -2.88662 0.998587 0.201374 
2 -2.99075 0.176442 0.483364 
2 -2.63039 0.661684 1.55727 
1 -2.08874 0.963082 0.929809 
1 -1.7889 0.469171 1.82286 
1 -1.66635 1.5266 1.7815 
1 -1.43073 0.20775 0.693732 
2 -1.24456 0.887157 1.23355 
1 -1.15527 1.42031 0.513694 
1 -0.837119 0.0852198 1.58091 
1 -0.392328 0.772694 0.859464 
1 0.0616386 1.62593 1.32573 
1 0.224241 0.625241 1.7988 
1 0.374454 1.36736 0.304554 
1 0.623811 0.370364 0.700536 
1 1.00594 1.18383 1.23535 
2 0.977577 0.785062 -0.00592755 
1 1.15138 0.141597 1.60346 
1 1.46312 1.56137 0.284013 
1 1.70257 0.612319 0.616565 
1 1.83069 -2.5372 1.36705 
1 1.94282 -0.838053 -2.53311 
1 1.96806 0.889428 1.69777 
1 1.96835 -2.984 -2.28761 
1 1.96465 -1.3141 1.38605 
1 2.00305 0.683727 -3.64136 
1 2.02695 -0.700483 -0.630987 
2 2.08843 -0.00504566 -0.00785454 
1 2.10294 -0.131821 1.24774 
1 2.13162 -0.226395 -1.65438 
2 2.23899 1.05829 -1.14218 
1 3.77594 -0.287727 -2.18666 
1 3.77047 -0.761599 -0.528045 
1 2.30449 -2.41892 -3.15948 
2 2.58799 -3.02055 -1.60173 
1 3.5696 -3.60315 -1.42718 
1 3.1363 -2.74443 -0.975508 
1 3.27036 -2.80922 -3.05838 
1 3.67673 -1.86691 -0.750994 
1 3.20637 -0.268762 -1.28231 
1 3.13956 -3.4356 -0.122655 
1 2.85222 -0.0190941 -2.59718 
2 2.7256 -2.53988 -2.39802 
1 2.85377 -0.505655 -0.0391348 
2 3.34164 -1.88984 -1.57967 
1 2.83303 -1.28118 -1.00029 
1 3.24497 -1.88832 -3.57436 
2 2.72183 -2.06944 -0.631767 
1 2.52428 -3.65944 -1.00108 
1 3.35069 -0.885877 -3.1129 
1 3.48161 -2.67701 -1.96353 
1 2.30463 -2.81632 -0.333443 
1 2.86866 -3.4855 -2.27412 
1 3.2408 -1.81663 -2.50722 
1 2.29798 -3.46737 -3.30745 
1 2.85492 -0.968236 -2.03807 
1 2.48162 -0.332551 -3.5707 
1 2.5013 -2.14442 -1.61812 
1 2.38521 -1.3644 -3.30116 
2 2.81081 -0.0862367 0.755672 
2 2.52843 -3.20769 1.73025 
2 2.27694 -2.34052 0.425612 
1 2.57968 -3.07136 0.832971 
1 3.25549 -0.201586 1.51202 
2 3.44558 -3.05583 0.628822 
2 3.64789 -0.693002 0.885857 
2 2.53338 -0.654822 1.77735 
1 3.40674 -3.12137 1.51903 
1 2.81927 -0.953628 0.943166 
1 2.50022 -1.55591 0.059257 
1 3.19099 -2.39359 0.0885972 
1 2.81461 -2.0399 1.08065 
1 3.54539 -1.41156 0.334382 
1 3.25189 1.63428 -3.51053 
2 3.5836 1.53233 -0.363744 
1 2.49993 0.265497 -0.762373 
1 3.55047 1.3661 -1.24015 
1 2.70628 1.45034 -0.474205 
1 2.80109 0.670024 -1.71576 
1 3.44376 0.654785 -0.493851 
1 2.57044 1.01373 -2.75626 
1 2.65959 1.75025 -1.54468 
1 3.60288 0.918062 -2.39874 
1 3.0621 0.623212 -3.69812 
1 3.60411 0.0502969 0.411529 
1 2.5406 1.55968 0.637144 
1 2.73388 1.69877 1.69838 
1 2.93717 0.743011 1.25981 
1 2.67625 0.593729 0.227353 
1 3.5701 1.19786 0.470257 
1 -3.55065 3.33458 -0.526765 
2 -3.39288 2.02428 -3.66663 
2 -3.31873 3.28241 -2.92389 
1 -3.12766 3.03294 -1.49071 
2 -3.03555 2.16579 -1.3256 
1 -2.81998 2.60447 -3.16115 
1 -2.74366 2.64779 -0.586783 
1 -2.61388 3.36118 -2.37859 
1 -2.61738 2.32115 -2.12288 
1 -2.52604 3.67672 -0.290161 
2 -2.29475 2.75631 -1.37049 
1 -2.15959 3.63144 -1.35497 
1 -2.15615 1.8969 -1.22469 
1 -2.12756 1.89568 -0.158437 
1 -1.8496 2.19194 -3.15953 
1 -1.72024 3.30427 -2.9815 
1 -1.68468 2.7885 -0.703783 
1 -1.68005 2.92407 -1.98006 
1 -1.63687 1.87131 -2.16382 
2 -1.28266 2.78934 -3.5226 
1 -1.0585 3.56043 -1.12594 
1 -0.948083 2.39658 -1.43814 
1 -0.956982 2.52096 -2.7079 
2 -2.48928 3.59975 -3.29165 
2 -0.813202 2.55694 -0.590663 
2 -0.748163 1.86708 -2.16344 
1 -0.596293 3.42045 -3.12051 
1 -0.564182 3.25088 -2.04839 
1 -0.473534 2.50125 -3.68612 
1 -0.384299 3.11528 -0.096179 
1 -0.042352 3.04903 -1.13823 
1 -0.00419777 1.98023 -1.6763 
1 -0.0520808 1.95487 -2.81768 
1 0.0238847 2.18335 -0.529807 
2 0.116226 3.53855 -2.54995 
1 0.433708 2.86423 -2.10885 
1 0.423781 2.90146 -3.17494 
1 0.635951 3.302 -0.298119 
1 0.943936 2.38071 -1.29024 
1 0.937042 1.95154 -3.38245 
1 0.976823 1.94991 -2.29899 
1 1.01939 3.45961 -1.28338 
1 1.11124 2.393 -0.226779 
2 1.27996 2.96335 -1.93456 
1 1.39842 3.60705 -3.42984 
1 1.46038 2.80923 -2.77049 
2 1.62742 3.08272 -0.0299128 
2 1.86942 3.66759 -2.67104 
1 1.92242 2.38752 -1.89616 
1 1.9064 2.91104 -0.889996 
1 -3.55947 3.05489 1.57377 
1 -3.19884 3.20182 0.475541 
1 -3.11732 2.09623 0.302256 
1 -2.75483 2.56826 1.19406 
1 -2.45913 3.60992 1.24178 
2 -2.39769 1.98068 1.71253 
1 -2.13918 2.96195 0.403217 
1 -1.97182 1.98795 0.863825 
1 -1.77262 2.64377 1.64109 
2 -1.6245 3.5632 0.8942 
1 -1.47988 3.62993 1.77636 
1 -1.20936 2.48165 0.235304 
1 -0.827377 3.16168 1.02606 
1 -1.32404 3.58033 0.0522852 
1 -0.915525 2.0957 1.27731 
1 -0.21159 2.24138 0.501209 
1 -0.0352299 2.61735 1.71569 
1 0.214545 3.63255 1.84116 
1 0.275204 3.17228 0.811247 
1 0.836065 2.25607 0.834578 
1 1.07143 3.09081 1.54883 
1 1.22123 3.63277 0.57902 
1 1.77015 1.88604 1.28415 
1 1.80457 2.83131 0.832941 
1 1.97363 3.51855 -1.80562 
1 1.95981 3.64146 1.77702 
1 2.18425 2.32955 -0.0206054 
1 2.28598 3.6086 0.262097 
1 2.25869 2.64858 1.83612 
1 3.6081 3.14943 -2.24996 
1 2.90332 3.01495 -0.37821 
1 3.59701 2.61697 -3.17774 
1 2.58737 2.47108 -3.48721 
1 3.62745 2.34936 -0.832518 
1 2.53354 3.05902 -2.60603 
1 3.7282 2.19589 -1.85503 
1 3.36917 3.61596 -3.18427 
1 2.86481 2.84993 -1.49912 
1 2.92936 2.03416 -2.53833 
2 2.61338 2.28601 -0.821509 
1 2.98272 3.41999 1.79098 
1 3.64996 2.04804 1.19379 
1 3.32753 3.54909 0.794892 
1 2.817 2.62221 0.954692 
2 2.47365 3.41321 1.09042 
1 3.29046 2.17892 0.143515 
1 -1.01969 -1.97337 2.14241 
1 -0.568159 -2.25464 3.03198 
1 -0.959113 -3.0282 2.19652 
1 -2.35512 -0.385477 2.18937 
1 -2.52457 -2.21227 2.38899 
1 -1.40233 -0.728475 2.94759 
2 -1.67331 -2.52774 2.40289 
1 -1.89155 -1.34658 2.13934 
1 -1.69989 -1.89412 3.05091 
1 -2.44785 -1.13387 3.15034 
1 -3.02663 -1.30019 2.25205 
1 -2.23662 -3.23181 2.31638 
1 -3.54888 -2.28188 2.00758 
1 -1.43782 -2.89652 3.17892 
2 -1.51788 -3.59081 2.63985 
2 -1.46781 -0.287517 2.16482 
2 -0.941221 -1.45905 2.83528 
1 -0.863456 -0.926375 2.05685 
1 -2.94251 -2.0742 3.4317 
2 -0.728223 -3.3645 3.01352 
1 -3.09109 -3.00309 2.91402 
2 -2.2967 -2.66122 3.1115 
1 -0.0705827 -1.30891 2.68952 
1 -2.27371 -3.52552 3.36608 
1 -3.01399 -0.230659 3.06002 
1 -0.167879 -0.212294 2.38064 
1 0.0416702 -3.14869 2.69342 
1 0.00811756 -2.23059 2.12714 
1 -0.506515 -0.168189 3.3792 
1 -3.27629 -3.55442 2.06068 
1 -0.591468 -1.1896 3.60084 
1 -3.63236 -1.27465 3.24408 
1 0.465848 -2.13246 3.26776 
1 0.528023 -0.694428 3.34508 
1 0.699074 -0.694059 2.10395 
1 0.869515 -3.12917 3.39212 
1 0.977104 -3.6763 2.4665 
2 1.00924 -1.43169 3.45528 
1 0.983673 -1.55523 2.58453 
1 0.947044 -2.60945 2.31999 
2 -2.22392 -0.512193 3.7322 
1 1.56097 -2.35554 3.14116 
1 1.79481 -0.138071 3.1122 
1 1.74683 -0.647578 2.18261 
1 1.84105 -1.28421 3.11451 
2 -3.52665 0.421324 3.45399 
1 -3.49069 1.56423 2.99616 
1 -3.20806 0.345091 2.20269 
1 -2.7771 0.813466 3.13654 
1 -2.55044 1.8004 3.57997 
1 -2.66296 1.25648 2.18263 
2 -2.37253 0.464336 2.45598 
1 -1.97892 0.113398 3.13798 
1 -1.79143 1.12561 2.77364 
1 -1.05524 0.362673 2.62482 
1 -0.849784 0.801809 3.66723 
1 -0.78717 1.48008 2.87446 
1 -0.709518 1.11815 1.88681 
1 -0.0340582 0.715213 2.88865 
1 0.0515834 1.57124 3.58506 
1 0.138683 1.62229 2.38823 
2 -0.812679 1.69705 3.72016 
1 0.851918 0.144959 2.73827 
1 1.03407 1.06145 3.39773 
1 1.09255 1.07518 2.31049 
2 1.65012 0.268548 2.31281 
1 1.87266 1.79835 2.37585 
1 1.98371 1.68458 3.47535 
1 1.94705 -1.89992 2.24794 
1 1.92873 -2.97292 2.36242 
1 2.1069 0.851221 2.79597 
2 2.2021 -1.955 3.57041 
2 3.59921 -1.57724 2.4527 
1 2.77868 -1.71036 2.95569 
1 2.90515 -1.39483 1.95907 
1 2.66259 -0.690634 2.81252 
1 3.63287 -0.626178 2.40178 
2 3.59417 -3.00988 2.42477 
1 2.83914 -3.428 2.58984 
2 2.98395 -1.07618 3.55844 
1 3.43987 -0.308323 3.42475 
1 3.49656 -3.27414 3.42499 
1 2.86404 -2.45893 2.14476 
1 3.58832 -2.32049 2.98218 
1 2.57658 -2.71871 3.32263 
1 3.67086 1.24245 1.96458 
1 2.91568 1.55573 2.81797 
2 2.79052 0.955488 2.16134 
2 2.63997 0.158977 3.12516 
1 3.36447 0.545127 2.74779 
1 2.53058 0.123471 2.19627 
1 1.83406 -3.75018 3.10854 
1 -3.20894 3.39462 3.67823 
1 -3.19386 2.15604 2.08965 
1 -3.01465 2.58363 3.05388 
2 -2.86001 3.57163 2.86599 
1 -2.60471 3.0624 2.17682 
1 -2.17473 2.12301 2.55863 
1 -2.14787 2.92679 3.58043 
1 -1.66311 3.048 2.65729 
1 -1.43181 2.17598 3.32312 
1 -1.20027 3.53022 3.45875 
1 -0.957956 2.33972 2.30207 
2 -0.858232 2.82334 3.05304 
1 -0.6543 3.41371 2.42813 
1 -0.158912 3.47882 3.38642 
1 -0.0240157 2.58249 2.80101 
2 0.380151 2.40922 3.56631 
2 0.63643 2.95492 2.32496 
1 0.792294 3.14478 3.25223 
1 0.95184 2.05366 2.99157 
1 0.929881 2.11845 1.91474 
1 1.51051 2.8504 2.52377 
1 1.62902 2.66625 3.62075 
1 2.43852 2.52609 2.90621 
1 3.72998 3.31964 2.70642 
1 2.87515 3.35225 3.39731 
1 3.43785 2.43899 3.27282 
1 3.26482 2.45243 2.21111 
2 2.40561 3.3002 2.47588 
