ITEM: TIMESTEP
337
ITEM: NUMBER OF ATOMS
500
ITEM: BOX BOUNDS xy xz yz pp pp pp
-3.7345 3.80919 0.07469
-3.7345 3.7345 0
-3.7345 3.7345 0
ITEM: ATOMS type xu yu zu 
1 3.23866 -1.88964 -3.57572 
1 -1.62188 -1.1886 -3.58282 
1 -2.94628 -2.07526 3.43075 
1 2.82751 -1.28215 -0.999976 
1 0.940669 2.05512 2.99182 
1 3.25451 2.45013 2.21242 
1 2.65649 -0.691011 2.8118 
1 -0.578626 3.25268 -2.04856 
1 2.79022 0.670545 -1.71666 
1 -3.08063 1.62217 -0.651419 
1 0.865557 -3.12979 3.39079 
1 0.736268 -3.00332 -0.967341 
1 -1.22142 2.48217 0.235036 
1 -1.02217 -1.97314 2.14214 
1 -2.60354 0.257094 -3.44363 
1 -2.537 -1.20404 1.26094 
1 -1.4396 -2.89606 3.17843 
1 -0.714518 0.328454 -2.86051 
1 1.03399 -0.859063 1.12114 
1 0.372485 -0.501211 -1.84713 
1 1.38389 3.60856 -3.42957 
1 3.61468 2.34881 -0.832181 
1 -1.98183 1.98771 0.863625 
1 -1.39622 -0.758835 0.0887468 
1 3.71596 2.1963 -1.85499 
1 2.89003 3.01486 -0.376705 
1 1.14085 0.141646 1.60249 
1 1.56238 -2.35974 3.14292 
1 -0.610745 3.42114 -3.12119 
1 3.19767 -0.269338 -1.28323 
1 0.814996 -2.20977 -0.139347 
1 -2.09686 0.962514 0.929105 
1 -0.0154819 -1.38901 -1.4549 
1 1.08201 1.07625 2.30975 
1 1.89567 1.8375 -2.88975 
1 1.8698 -0.759196 0.427741 
1 2.4957 -1.55622 0.0601638 
1 1.75441 -1.92514 -2.40897 
1 -3.21496 0.344621 2.20324 
1 -0.841555 3.16091 1.02713 
1 -1.83226 -2.30244 1.56254 
1 -3.17964 -2.00675 -1.79633 
1 -2.67218 1.2563 2.18234 
1 -3.30817 1.09095 -3.47448 
1 2.72287 1.69708 1.70014 
1 0.850617 -1.92535 -1.14871 
1 0.520151 -0.692511 3.34577 
1 -0.867199 -0.926537 2.05568 
1 3.76824 -0.288173 -2.1872 
1 3.24885 -0.201631 1.51376 
1 -0.843541 0.0858032 1.58125 
1 0.515309 -3.19113 0.0459764 
1 -1.15178 1.73891 -0.535068 
1 -0.367041 1.09161 -2.20981 
1 -2.22898 -0.547616 -2.84866 
1 3.43349 -0.309856 3.42464 
1 -0.923885 -1.78757 -1.79123 
1 3.2421 1.63291 -3.51022 
1 0.0388513 -3.14977 2.68969 
1 -1.28772 -2.45326 -2.51381 
1 -3.22209 3.39409 3.67865 
1 -1.07912 0.268009 -1.86134 
1 -3.28066 -1.21276 -2.53917 
1 1.96072 3.51749 -1.80541 
1 -0.968825 2.34025 2.30221 
1 1.89287 2.9113 -0.888344 
1 0.918838 2.11938 1.9148 
1 -2.1681 1.8973 -1.22449 
1 1.02301 1.06308 3.398 
1 1.95762 0.888304 1.69642 
1 2.91793 2.03078 -2.53799 
1 -0.160765 -2.43097 0.333493 
1 -0.96177 -3.02776 2.19612 
1 3.67299 -1.86746 -0.752137 
1 1.75956 1.88622 1.28442 
1 1.71855 0.844459 -0.447396 
1 3.31417 3.54946 0.795012 
1 -2.61606 3.06239 2.17532 
1 2.51992 0.122041 2.19497 
1 1.19895 0.212497 -1.92177 
1 -2.13967 1.89587 -0.158189 
1 0.149984 0.439663 -0.230654 
1 -0.176125 -0.210731 2.38282 
1 -1.33797 3.58051 0.0513461 
1 -1.7834 2.64336 1.64087 
1 3.35402 3.61374 -3.18512 
1 -1.86954 1.04406 -3.63737 
1 2.24835 2.64724 1.8377 
1 -0.514936 -0.166848 3.38113 
1 -0.0565253 3.05111 -1.13826 
1 -0.959854 2.39744 -1.43827 
1 -1.21266 -3.12642 1.10731 
1 3.49662 -3.2762 3.42458 
1 0.855353 -1.44446 -2.09293 
1 3.34445 -0.887034 -3.11326 
1 3.59591 0.0506735 0.413133 
1 -3.57279 3.05221 1.57176 
1 0.261365 3.17082 0.809223 
1 -0.0357272 2.58325 2.8012 
1 -0.0637421 1.95532 -2.81752 
1 -2.16121 2.92674 3.58023 
1 -3.56501 3.33476 -0.527081 
1 2.27147 3.60911 0.262894 
1 -2.83242 2.6041 -3.16043 
1 -2.5038 -2.17579 0.779074 
1 -1.69346 2.92478 -1.97938 
1 2.84885 -0.970981 -2.03787 
1 2.97076 3.41929 1.79294 
1 -1.16154 -2.31609 -0.821484 
1 1.83046 -1.93099 -0.697675 
1 2.30297 -2.81642 -0.331473 
1 1.61852 2.66828 3.6204 
1 3.23584 -1.81825 -2.50897 
1 2.5233 -3.65973 -0.999235 
1 2.86178 -2.45838 2.14156 
1 2.81547 -2.03828 1.07854 
1 0.779312 3.14486 3.2533 
1 -0.485703 2.50227 -3.6861 
1 -0.719726 1.11893 1.88803 
1 -3.02203 -3.10218 -3.48648 
1 -3.69061 -1.13165 -1.54511 
1 -1.80059 1.12591 2.77363 
1 -3.67308 -1.39714 1.39808 
1 2.29807 -3.46748 -3.30626 
1 -0.18347 -2.9477 1.385 
1 0.714001 -2.5574 0.883031 
1 0.363997 1.3681 0.303952 
1 -1.09135 1.46786 -2.96593 
1 2.37969 -1.3643 -3.3001 
1 -0.457553 -3.17999 -2.58049 
1 -1.47822 -1.2223 -2.52738 
1 -2.82982 -2.84682 1.47765 
1 -2.40658 -1.1277 -1.9284 
1 2.17198 2.32954 -0.0186416 
1 0.00841195 -1.33068 1.60907 
1 0.613273 0.371881 0.699436 
1 3.5394 1.36543 -1.24049 
1 1.93652 -0.838608 -2.53222 
1 -2.88058 0.438328 -2.39654 
1 -2.94552 1.49424 1.19561 
1 -3.22811 -0.467462 1.52433 
1 3.56851 -3.60297 -1.42707 
1 0.825271 2.25622 0.834495 
1 1.40325 -1.91471 -3.41567 
1 -2.63888 -2.44205 -0.931802 
1 -2.75684 2.64774 -0.5864 
1 2.58087 -3.0705 0.831878 
1 -1.64864 1.87221 -2.16349 
1 1.24121 -2.88801 -3.02479 
1 2.53089 1.55947 0.638426 
1 1.94707 3.63905 1.77663 
1 0.401619 -1.57046 0.649791 
1 -0.534822 -0.139388 0.342903 
1 -3.12952 2.09544 0.302174 
1 -2.62867 3.36194 -2.37811 
1 0.952402 -3.72546 -2.37469 
1 -0.223627 2.2408 0.500285 
1 -3.55125 -2.28184 2.00732 
1 1.94407 -1.89957 2.24918 
1 -1.69739 2.78836 -0.704058 
1 3.35523 0.541083 2.74584 
1 3.63835 2.0446 1.19404 
1 -2.62996 2.32169 -2.12222 
1 1.78616 -0.141026 3.11038 
1 -3.16877 0.12407 -0.385915 
1 -0.0155948 1.9808 -1.67664 
1 3.27858 2.17864 0.144167 
1 3.71379 3.3203 2.7072 
1 1.02232 -3.29164 1.5037 
1 0.420222 2.86553 -2.10808 
1 1.44809 2.80952 -2.77095 
1 0.0135229 2.1848 -0.530701 
1 3.58453 2.61528 -3.1753 
1 -2.58372 0.771914 -0.9455 
1 0.995913 1.18405 1.2348 
1 -3.27685 -3.55709 2.05966 
1 -3.20412 2.15532 2.0884 
1 1.92655 -2.97232 2.35747 
1 2.86697 -3.48617 -2.27517 
1 3.43498 0.654891 -0.492981 
1 3.26637 -2.81084 -3.06018 
1 -2.27447 -3.526 3.36465 
1 -2.18572 2.12312 2.55859 
1 2.80656 2.62217 0.956427 
1 1.7736 -2.93032 -1.26195 
1 -1.43609 0.20844 0.692999 
1 3.66097 1.24141 1.96599 
1 -1.1093 -2.8379 0.0905999 
1 -3.21255 3.20079 0.474984 
1 -2.89513 0.998589 0.201267 
1 0.00658839 -2.22887 2.12716 
1 1.12813 -0.616372 -1.13671 
1 2.92818 0.742208 1.26018 
1 -2.3607 -0.385544 2.1896 
1 1.45309 1.56001 0.284659 
1 -1.89536 -1.34629 2.13886 
1 1.97041 1.68427 3.47539 
1 3.5406 -1.41132 0.335362 
1 0.82402 1.43686 -0.658746 
1 -2.45279 -1.13437 3.15015 
1 3.42619 2.43949 3.27461 
1 -0.834354 -2.11793 1.10162 
1 -1.85106 -2.73686 -1.60963 
1 -3.02034 -0.231325 3.06027 
1 0.485023 -1.42087 -3.26962 
1 3.1332 -2.74467 -0.976199 
1 0.85819 0.421144 -0.969087 
1 -2.41185 -0.040341 1.08536 
1 -3.14143 3.03337 -1.49003 
1 0.144953 0.54131 -3.54747 
1 2.09395 0.850166 2.79381 
1 1.47655 -0.828095 -3.52808 
1 -0.596338 -1.18897 3.601 
1 0.324906 0.367435 -2.51586 
1 -0.873577 -1.26028 -0.83786 
1 0.07702 -0.328383 1.27851 
1 3.13911 -3.43564 -0.122593 
1 -1.49511 3.63031 1.77592 
1 2.47495 -0.333 -3.57231 
1 3.47931 -2.67774 -1.96458 
1 1.0577 3.09176 1.54851 
1 0.623398 3.30037 -0.299079 
1 -3.59999 -2.32442 0.931795 
1 0.974994 -3.67771 2.46559 
1 -1.43731 -3.52447 -2.17672 
1 1.69155 0.609508 0.615677 
1 -3.50095 1.56473 2.99646 
1 3.58494 -2.32253 2.98143 
1 -1.16444 1.42115 0.513043 
1 -0.580819 -0.608281 -2.30518 
1 2.42724 2.52369 2.90621 
1 -1.44285 2.17748 3.3231 
1 1.86106 1.79815 2.37592 
1 0.464345 -2.13132 3.26918 
1 2.8459 -0.50414 -0.0383663 
1 -1.33052 -0.739072 -1.60425 
1 2.83715 -3.42626 2.58981 
1 -1.86573 -1.6993 -1.24618 
1 2.77579 -1.71089 2.95337 
1 -3.65236 0.139331 -3.1461 
1 2.12422 -0.227378 -1.65436 
1 1.22318 -0.0807831 -0.132851 
1 2.85778 3.35221 3.39659 
1 -1.09642 -2.13295 -3.5397 
1 0.0361885 -2.18941 -2.24495 
1 -3.63776 -1.27628 3.24423 
1 -3.41122 -3.08404 -0.539335 
1 -1.989 -0.724361 -0.800217 
1 -2.84197 -1.39891 -0.948975 
1 -2.4735 3.60997 1.24006 
1 0.0516308 1.62684 1.32604 
1 -0.197168 1.22021 -0.895775 
1 0.304224 -2.46969 -3.21942 
1 0.987665 -1.82572 1.57063 
1 -0.401665 0.774025 0.860322 
1 -1.87739 0.873496 -0.112426 
1 -3.14037 -2.21436 -0.0151503 
1 -3.16087 -3.19687 0.486734 
1 1.83294 -3.74551 3.10763 
1 1.48318 -3.59815 -0.459168 
1 0.843155 0.148448 2.74133 
1 -1.7859 0.479077 -2.72854 
1 -1.70304 -1.89371 3.0504 
1 -1.83669 -3.16597 -0.630893 
1 0.323125 -3.52279 -3.2513 
1 -2.15228 2.96183 0.401565 
1 0.62836 1.12305 -1.71628 
1 0.94366 -2.6104 2.32511 
1 1.83305 -2.53379 1.36394 
1 -2.25552 -0.108461 0.0349459 
1 -2.93156 -0.404488 -1.30019 
1 1.74059 -0.652959 2.18102 
1 2.84319 -0.021291 -2.5967 
1 -3.02719 2.58495 3.05174 
1 -1.86123 2.19226 -3.15984 
1 2.9048 1.55231 2.82054 
1 0.964505 1.951 -2.29898 
1 -0.0440648 0.716848 2.89018 
1 -0.569867 -2.25452 3.03185 
1 -0.925954 2.09509 1.27776 
1 -0.0745438 -1.30867 2.68985 
1 -0.113558 -2.36923 -0.783602 
1 0.410844 2.90191 -3.1742 
1 3.56076 1.19709 0.46994 
1 0.926602 1.95259 -3.38239 
1 0.040491 1.57223 3.58638 
1 -0.113381 0.315304 -1.4415 
1 -0.815514 -0.222969 -0.70724 
1 -2.12555 -2.49494 -3.51025 
1 -0.666878 3.41478 2.42622 
1 -2.28345 -2.10104 -2.35654 
1 -0.0468352 2.61815 1.716 
1 -0.969293 2.52162 -2.70755 
1 -0.846713 0.738788 -0.201075 
1 1.90957 2.38764 -1.8953 
1 -1.96114 -2.24677 -0.11649 
1 1.5527 -2.88137 0.362843 
1 -3.0311 -1.30072 2.25208 
1 0.394134 -0.594524 0.273289 
1 -1.98642 0.113131 3.13852 
1 -1.73501 3.30418 -2.98117 
1 2.09209 -0.13407 1.24683 
1 3.59456 3.15039 -2.2493 
1 1.81562 0.164507 -2.75716 
1 -2.2372 -3.23135 2.31557 
1 -2.17515 3.63226 -1.35535 
1 -0.691084 -1.05217 0.870393 
1 0.897648 -0.51119 -2.73291 
1 2.5777 -2.71938 3.32538 
1 -0.397267 3.11614 -0.0960761 
1 -3.49163 0.458169 -1.45649 
1 -0.172822 3.47966 3.38545 
1 -3.4171 0.550072 1.1876 
1 -1.07397 3.5618 -1.12661 
1 -0.407187 -3.49001 0.503544 
1 1.99418 0.682335 -3.6442 
1 1.83761 -1.28628 3.11766 
1 -1.67675 1.52656 1.78136 
1 0.931738 2.38189 -1.28965 
1 1.53635 -1.82115 0.554688 
1 -3.00387 1.38026 -1.78378 
1 -3.39757 1.80684 -2.74311 
1 -3.09266 -3.00394 2.91179 
1 -1.60067 -0.643245 1.34439 
1 -2.01661 0.953924 -1.80155 
1 0.981157 -1.55511 2.58496 
1 2.66638 0.593861 0.227665 
1 2.85197 2.85061 -1.4977 
1 1.96183 -1.31935 1.38383 
1 -2.10723 -0.0980848 -1.88189 
1 -2.56179 1.80187 3.57903 
1 -2.54156 3.67712 -0.290806 
1 -1.67515 3.04775 2.65717 
1 -3.46239 -3.38663 -2.56103 
1 -2.42954 1.36435 -2.76502 
1 1.49896 2.85152 2.52397 
1 0.125133 -3.5071 -1.75204 
1 1.17019 0.998274 -2.91108 
1 0.214499 0.62677 1.80008 
1 1.09948 2.39147 -0.226065 
1 2.49187 0.265992 -0.76249 
1 1.07971 0.120382 -3.58398 
1 2.57587 2.46877 -3.48698 
1 -2.535 -1.53793 -3.22126 
1 -0.477273 -2.99867 -3.69469 
1 -2.33828 -3.14556 -2.65407 
1 -2.78577 0.813564 3.13624 
1 -1.67034 0.290206 -0.982984 
1 3.05374 0.622344 -3.70027 
1 0.200506 3.6344 1.83509 
1 3.76276 -0.761374 -0.527968 
1 1.75838 1.19388 -1.91541 
1 -2.3993 -1.32127 0.0143197 
1 -2.94105 -3.09115 -1.70435 
1 2.81313 -0.951746 0.942157 
1 0.0768796 -1.45393 -0.345897 
1 0.128106 1.62327 2.3886 
1 1.79378 2.83264 0.835466 
1 -0.910467 -1.75154 0.0712541 
1 -0.860066 0.802762 3.66801 
1 -0.0548623 -0.493906 -3.19733 
1 -0.298629 -3.41654 -0.653144 
1 1.9653 -2.98516 -2.28747 
1 0.171501 -0.499756 -0.767163 
1 1.79004 1.82617 -0.923495 
1 2.64846 1.75162 -1.54326 
1 -1.07304 1.3223 -1.47779 
1 1.12992 -1.19547 -0.240743 
1 -1.79603 0.469081 1.82269 
1 1.20674 3.63238 0.5812 
1 -1.40732 -0.728169 2.94682 
1 2.49823 -2.14522 -1.61994 
1 3.59261 0.916273 -2.3992 
1 2.90186 -1.39379 1.95761 
1 -2.09503 -3.1677 0.521505 
1 2.69543 1.45037 -0.473536 
1 0.985357 -2.6438 -1.96656 
1 3.18976 -2.39354 0.0880691 
1 -0.715238 -2.87481 -1.59455 
1 -0.797359 1.48138 2.87549 
1 3.62763 -0.627375 2.40233 
1 -1.67805 -1.54246 0.742138 
1 2.52106 3.0562 -2.60534 
1 3.40724 -3.1215 1.51819 
1 -0.506931 -1.53552 -2.86184 
1 -1.06384 0.363057 2.62542 
1 -3.27868 -2.26661 -2.87196 
1 -1.4198 -0.161556 -3.48461 
1 -3.10501 -0.703741 -3.47875 
1 -1.21466 3.53111 3.4586 
1 1.00628 3.46117 -1.28441 
1 -3.09084 -0.697074 0.433123 
1 -1.4023 -3.2152 -3.23547 
1 2.29991 -2.41898 -3.15863 
1 0.692403 -0.691591 2.11029 
1 2.55981 1.01157 -2.75837 
1 -2.52713 -2.21213 2.38849 
1 1.84245 -1.27644 -1.55496 
1 -2.76566 2.56805 1.1931 
1 2.02051 -0.700793 -0.631324 
2 1.65712 0.0693817 -0.935128 
2 0.410149 -3.01066 -2.51376 
2 -0.917623 -0.795657 -3.1266 
2 3.64187 -0.69262 0.887133 
2 2.46294 3.41392 1.09084 
2 -3.33274 3.28183 -2.92382 
2 1.85601 3.66481 -2.67071 
2 -0.313192 1.13236 -3.11904 
2 -1.62326 -1.47518 -0.40666 
2 1.76771 -3.38345 1.02826 
2 -1.29505 2.79057 -3.52218 
2 -0.759657 1.86729 -2.16355 
2 0.188128 -2.65544 -1.5456 
2 2.62963 0.159117 3.12387 
2 -3.12982 -1.56695 0.702482 
2 -3.53449 0.420562 3.45331 
2 -2.50364 3.60215 -3.29113 
2 1.29823 -0.672542 -1.97344 
2 1.32046 -0.147937 0.749672 
2 -1.42485 0.0829786 -0.167079 
2 -1.63842 3.56371 0.89334 
2 2.22899 1.05897 -1.14216 
2 2.0798 -0.00563781 -0.00797548 
2 -0.706515 -3.65809 1.60358 
2 2.72285 -2.54247 -2.39873 
2 1.26667 -1.29534 -2.83264 
2 2.97736 -1.07732 3.55791 
2 2.5854 -3.02217 -1.60204 
2 -0.537713 -0.894505 -0.0901564 
2 1.61336 3.08232 -0.0278678 
2 0.62354 2.95619 2.32454 
2 -3.40417 2.02406 -3.66556 
2 1.6008 -2.12788 -1.5652 
2 -1.26611 1.01393 -2.26641 
2 -3.04806 2.16599 -1.32525 
2 -0.845983 0.5956 -1.05866 
2 -2.99851 0.176855 0.484917 
2 -2.37952 0.464557 2.45611 
2 2.71935 -2.06993 -0.630397 
2 3.33831 -1.88997 -1.58131 
2 -1.7448 -1.87878 -3.02154 
2 3.44605 -3.05569 0.627951 
2 -1.47318 -0.287973 2.16386 
2 2.27286 -2.34013 0.428093 
2 2.20247 -1.95577 3.57087 
2 0.887881 -2.12052 -2.6755 
2 -1.25304 0.888252 1.23341 
2 -1.42684 -0.306712 -2.46797 
2 -0.729436 -3.36419 3.01324 
2 2.78033 0.953611 2.16206 
2 0.173363 -1.05891 -2.51406 
2 1.26668 2.9637 -1.93517 
2 -2.63765 0.661405 1.55717 
2 -2.30812 2.75682 -1.36998 
2 -2.5919 -2.90273 -0.167128 
2 -2.40791 1.98111 1.71232 
2 -1.61455 -2.42488 0.703071 
2 -3.42692 -3.65694 1.17997 
2 -1.51845 -3.59069 2.63951 
2 0.101504 3.53913 -2.5499 
2 -3.50078 -2.57703 -1.22766 
2 -2.29912 -2.66166 3.11073 
2 3.57249 1.53264 -0.363826 
2 1.00365 -1.42808 3.45553 
2 -2.7874 -0.652485 -0.437587 
2 -2.85388 -0.443626 -2.2303 
2 0.368087 2.4096 3.56692 
2 -2.12349 -0.748925 0.624295 
2 0.426952 1.27664 -2.55817 
2 3.59314 -3.01119 2.42284 
2 -0.521282 -2.40938 -2.93883 
2 -0.437036 1.53409 -0.0479177 
2 -3.06863 -3.6899 -1.05895 
2 3.59476 -1.57834 2.45255 
2 -0.214748 -1.93267 -3.66827 
2 -2.02118 -3.15758 1.43742 
2 0.391219 -3.42889 0.906028 
2 1.43045 -2.7056 -0.49354 
2 -2.23128 -0.512659 3.73254 
2 -2.8755 3.57006 2.86507 
2 2.60074 2.28645 -0.819921 
2 -1.75695 1.17394 -0.933918 
2 0.0424552 -2.11852 1.23083 
2 -3.43467 -1.53521 -3.38119 
2 0.968777 0.786011 -0.00566343 
2 -3.25004 -1.39287 -0.189309 
2 -0.869795 2.82532 3.05274 
2 -1.27744 -1.45715 1.49339 
2 2.52633 -0.655602 1.77501 
2 -0.443546 -0.583749 -1.42529 
2 -0.824105 1.6981 3.7211 
2 2.52929 -3.20921 1.72887 
2 2.39173 3.29976 2.47806 
2 2.80264 -0.0841666 0.758088 
2 1.6399 0.265014 2.31145 
2 -1.67563 -2.52685 2.40263 
2 -0.944906 -1.4588 2.83513 
2 -0.824949 2.55671 -0.590419 
2 -2.86295 -1.95126 1.57916 
2 -3.62919 -2.517 -3.67307 
