ITEM: TIMESTEP
18
ITEM: NUMBER OF ATOMS
500
ITEM: BOX BOUNDS xy xz yz pp pp pp
-3.7345 3.74197 0.007469
-3.7345 3.7345 0
-3.7345 3.7345 0
ITEM: ATOMS type xu yu zu 
1 3.20398 -1.89979 -3.58397 
1 -1.64639 -1.18898 -3.58651 
1 -2.96152 -2.08392 3.42239 
1 2.8017 -1.29153 -1.00236 
1 0.886331 2.0671 2.99301 
1 3.2123 2.43655 2.22636 
1 2.63153 -0.691778 2.80889 
1 -0.647841 3.26678 -2.04872 
1 2.72691 0.67501 -1.72644 
1 -3.13561 1.61804 -0.653692 
1 0.85102 -3.12739 3.39047 
1 0.723349 -3.00692 -0.958314 
1 -1.27561 2.48687 0.2319 
1 -1.02577 -1.96964 2.13867 
1 -2.64191 0.257756 -3.44636 
1 -2.55368 -1.20051 1.25968 
1 -1.44673 -2.89309 3.17524 
1 -0.75618 0.327449 -2.86118 
1 1.02848 -0.872366 1.17524 
1 0.342112 -0.493592 -1.83925 
1 1.31717 3.6158 -3.42625 
1 3.55331 2.34354 -0.829778 
1 -2.03159 1.98642 0.85825 
1 -1.40991 -0.745684 0.0981546 
1 3.65693 2.19757 -1.85428 
1 2.83244 3.01476 -0.366008 
1 1.08131 0.145519 1.58934 
1 1.58825 -2.38793 3.1564 
1 -0.677437 3.42618 -3.12453 
1 3.15289 -0.27425 -1.28748 
1 0.796114 -2.22749 -0.146062 
1 -2.13531 0.956904 0.925177 
1 -0.0243705 -1.38978 -1.4327 
1 1.02634 1.08759 2.2995 
1 1.84155 1.83643 -2.87986 
1 1.82139 -0.76289 0.421416 
1 2.48038 -1.55185 0.0614243 
1 1.72087 -1.93 -2.40985 
1 -3.24758 0.339152 2.20985 
1 -0.908563 3.15671 1.03399 
1 -1.83746 -2.29923 1.55917 
1 -3.19648 -2.00273 -1.79468 
1 -2.7143 1.25245 2.17555 
1 -3.3565 1.08766 -3.4803 
1 2.6707 1.68602 1.71746 
1 0.844942 -1.92932 -1.15259 
1 0.482817 -0.680135 3.34753 
1 -0.87514 -0.92302 2.048 
1 3.73197 -0.291981 -2.18886 
1 3.22121 -0.202868 1.52626 
1 -0.865732 0.0985321 1.58218 
1 0.500156 -3.21206 0.0561538 
1 -1.20134 1.74233 -0.537495 
1 -0.416054 1.09328 -2.20938 
1 -2.26763 -0.549644 -2.85 
1 3.41254 -0.324654 3.42413 
1 -0.935834 -1.77052 -1.79317 
1 3.18722 1.62406 -3.50965 
1 0.0274952 -3.15008 2.682 
1 -1.29878 -2.44441 -2.51306 
1 -3.27755 3.38962 3.68253 
1 -1.11816 0.27453 -1.86315 
1 -3.30674 -1.21624 -2.5398 
1 1.89776 3.50954 -1.8001 
1 -1.02236 2.34221 2.30279 
1 1.82958 2.91122 -0.873139 
1 0.871114 2.1274 1.91392 
1 -2.22635 1.89986 -1.22641 
1 0.972597 1.075 3.39838 
1 1.90541 0.879761 1.68386 
1 2.86177 2.00419 -2.53268 
1 -0.169527 -2.42595 0.329266 
1 -0.971205 -3.02504 2.19549 
1 3.65724 -1.87025 -0.757832 
1 1.71406 1.88916 1.28757 
1 1.67064 0.837554 -0.453733 
1 3.25773 3.55223 0.791478 
1 -2.6646 3.06198 2.16193 
1 2.46498 0.110428 2.18505 
1 1.17858 0.225725 -1.95036 
1 -2.19307 1.89476 -0.162622 
1 0.12154 0.459564 -0.25745 
1 -0.210063 -0.197384 2.39698 
1 -1.39902 3.58299 0.0427666 
1 -1.82923 2.64101 1.63571 
1 3.28371 3.59498 -3.18891 
1 -1.92004 1.06117 -3.64175 
1 2.20798 2.63984 1.85216 
1 -0.553892 -0.156103 3.39225 
1 -0.128687 3.06602 -1.13421 
1 -1.01561 2.40338 -1.44281 
1 -1.22058 -3.11699 1.1079 
1 3.50252 -3.29154 3.4242 
1 0.829566 -1.43437 -2.09283 
1 3.31696 -0.896634 -3.11584 
1 3.55611 0.0509103 0.427994 
1 -3.63756 3.03229 1.5551 
1 0.195649 3.16607 0.808186 
1 -0.0943257 2.58721 2.80793 
1 -0.119836 1.95785 -2.81545 
1 -2.22405 2.9248 3.58021 
1 -3.62881 3.3349 -0.528482 
1 2.20436 3.60929 0.264096 
1 -2.89254 2.59714 -3.15546 
1 -2.51152 -2.18114 0.776973 
1 -1.7568 2.92973 -1.97695 
1 2.82242 -0.985428 -2.04003 
1 2.92092 3.41851 1.80445 
1 -1.16977 -2.31221 -0.826268 
1 1.82095 -1.9382 -0.695638 
1 2.2963 -2.8203 -0.326663 
1 1.57122 2.67728 3.61993 
1 3.20898 -1.82969 -2.5184 
1 2.51666 -3.66357 -0.989268 
1 2.85342 -2.45386 2.11911 
1 2.82462 -2.02978 1.06668 
1 0.720003 3.14486 3.26219 
1 -0.543429 2.50825 -3.68283 
1 -0.766809 1.13541 1.8903 
1 -3.02468 -3.09206 -3.50329 
1 -3.71272 -1.12866 -1.54269 
1 -1.84113 1.1301 2.76883 
1 -3.67906 -1.40186 1.39512 
1 2.29952 -3.47119 -3.29666 
1 -0.196668 -2.93603 1.39078 
1 0.698843 -2.57482 0.880766 
1 0.322857 1.38009 0.298739 
1 -1.14652 1.47304 -2.96233 
1 2.35359 -1.36529 -3.2897 
1 -0.463907 -3.17523 -2.58281 
1 -1.50533 -1.21249 -2.52798 
1 -2.83869 -2.85055 1.47937 
1 -2.43299 -1.12988 -1.92479 
1 2.11648 2.33399 0.00231366 
1 0.0149314 -1.32702 1.60877 
1 0.546095 0.382977 0.690374 
1 3.48352 1.35722 -1.24116 
1 1.90556 -0.846687 -2.52432 
1 -2.92188 0.434435 -2.39427 
1 -2.98455 1.49426 1.18978 
1 -3.25128 -0.46537 1.52654 
1 3.56237 -3.60173 -1.42368 
1 0.784309 2.26375 0.830922 
1 1.38204 -1.90606 -3.42694 
1 -2.65011 -2.44124 -0.937943 
1 -2.81653 2.64695 -0.583789 
1 2.58895 -3.06838 0.82434 
1 -1.70708 1.87728 -2.16323 
1 1.22808 -2.87741 -3.02621 
1 2.49274 1.55976 0.651856 
1 1.89312 3.6245 1.77365 
1 0.426166 -1.58234 0.657221 
1 -0.53408 -0.127433 0.347604 
1 -3.18273 2.09033 0.301113 
1 -2.69673 3.36541 -2.37648 
1 0.956998 -3.72332 -2.37659 
1 -0.277061 2.23943 0.49448 
1 -3.55721 -2.28369 2.00593 
1 1.9329 -1.89757 2.25593 
1 -1.75369 2.78717 -0.707454 
1 3.30864 0.513205 2.73554 
1 3.5806 2.01931 1.1969 
1 -2.69162 2.32407 -2.11889 
1 1.74092 -0.166388 3.09579 
1 -3.20938 0.119616 -0.372883 
1 -0.0713079 1.98447 -1.67965 
1 3.22744 2.17885 0.151034 
1 3.63664 3.32609 2.71308 
1 1.04694 -3.27522 1.51828 
1 0.35239 2.87482 -2.09934 
1 1.39452 2.81072 -2.77147 
1 -0.0304194 2.19395 -0.535433 
1 3.52542 2.59972 -3.15082 
1 -2.63004 0.7686 -0.940675 
1 0.950337 1.1856 1.22488 
1 -3.28026 -3.57628 2.04977 
1 -3.2503 2.14862 2.07906 
1 1.91666 -2.96983 2.32708 
1 2.85812 -3.49156 -2.27941 
1 3.3938 0.653801 -0.482295 
1 3.24444 -2.82413 -3.07271 
1 -2.27943 -3.53039 3.35379 
1 -2.23904 2.12234 2.55626 
1 2.7627 2.62481 0.969126 
1 1.76114 -2.94336 -1.25865 
1 -1.45163 0.218244 0.6851 
1 3.61392 1.23253 1.97772 
1 -1.11281 -2.83726 0.0870293 
1 -3.27281 3.19455 0.469565 
1 -2.93395 0.997971 0.199429 
1 0.00633281 -2.22258 2.12997 
1 1.09254 -0.630511 -1.13675 
1 2.88768 0.736968 1.26607 
1 -2.37967 -0.385827 2.19084 
1 1.41778 1.54656 0.28935 
1 -1.90401 -1.3425 2.13303 
1 1.91273 1.6808 3.4803 
1 3.52254 -1.41118 0.344009 
1 0.773258 1.42056 -0.66672 
1 -2.47173 -1.13918 3.14818 
1 3.37537 2.44662 3.29298 
1 -0.840993 -2.1106 1.09752 
1 -1.85817 -2.7288 -1.61066 
1 -3.04047 -0.235353 3.06251 
1 0.459521 -1.41447 -3.26897 
1 3.11864 -2.74457 -0.983901 
1 0.82632 0.408692 -1.00002 
1 -2.431 -0.0471056 1.08722 
1 -3.20367 3.03603 -1.48492 
1 0.103019 0.5542 -3.53717 
1 2.02052 0.841073 2.77213 
1 1.45318 -0.815269 -3.52338 
1 -0.617669 -1.18367 3.60007 
1 0.277803 0.364932 -2.50784 
1 -0.892869 -1.25194 -0.834614 
1 0.0605577 -0.323964 1.30132 
1 3.13732 -3.43508 -0.125411 
1 -1.56593 3.63358 1.77288 
1 2.44879 -0.341148 -3.58917 
1 3.47355 -2.68356 -1.97359 
1 0.990794 3.10154 1.5535 
1 0.570883 3.27944 -0.296076 
1 -3.59913 -2.32564 0.926995 
1 0.965129 -3.68215 2.46792 
1 -1.44616 -3.51646 -2.17854 
1 1.62664 0.57943 0.606065 
1 -3.55115 1.57012 2.99856 
1 3.56932 -2.33846 2.97605 
1 -1.21196 1.42973 0.505398 
1 -0.610038 -0.601966 -2.29892 
1 2.37948 2.50935 2.91108 
1 -1.49755 2.18211 3.3229 
1 1.80406 1.7997 2.38067 
1 0.461763 -2.12225 3.27626 
1 2.80501 -0.487061 -0.0370888 
1 -1.36034 -0.733418 -1.59878 
1 2.82688 -3.41317 2.58988 
1 -1.87952 -1.6911 -1.23853 
1 2.76884 -1.71468 2.93605 
1 -3.68548 0.13058 -3.1494 
1 2.08756 -0.236458 -1.65502 
1 1.17592 -0.0842758 -0.153723 
1 2.77389 3.35496 3.39168 
1 -1.10844 -2.12894 -3.54169 
1 0.0207892 -2.18513 -2.24336 
1 -3.66128 -1.29165 3.24339 
1 -3.42002 -3.07979 -0.538825 
1 -2.01127 -0.719171 -0.787375 
1 -2.86076 -1.39604 -0.946276 
1 -2.53734 3.61198 1.22712 
1 0.0133351 1.63988 1.32649 
1 -0.251705 1.2332 -0.905743 
1 0.28821 -2.46643 -3.21862 
1 0.983269 -1.85851 1.58 
1 -0.448817 0.796715 0.860881 
1 -1.9142 0.877066 -0.117039 
1 -3.14678 -2.20857 -0.0208597 
1 -3.15864 -3.19864 0.484385 
1 1.82837 -3.71114 3.10722 
1 1.47519 -3.60341 -0.450647 
1 0.804142 0.173984 2.75809 
1 -1.82884 0.486067 -2.73536 
1 -1.71231 -1.8904 3.04558 
1 -1.8424 -3.16051 -0.632952 
1 0.318362 -3.52076 -3.25172 
1 -2.21029 2.96219 0.390748 
1 0.576425 1.12423 -1.72575 
1 0.933382 -2.6124 2.35983 
1 1.85053 -2.51797 1.34657 
1 -2.28832 -0.103684 0.040378 
1 -2.9539 -0.398222 -1.29254 
1 1.71575 -0.699224 2.17278 
1 2.80323 -0.0341269 -2.60033 
1 -3.08546 2.59577 3.03412 
1 -1.91676 2.19355 -3.16133 
1 2.8506 1.5289 2.83829 
1 0.901983 1.96046 -2.2999 
1 -0.0870786 0.731261 2.89959 
1 -0.576031 -2.24847 3.03204 
1 -0.970553 2.09145 1.27866 
1 -0.0888121 -1.30769 2.69066 
1 -0.123129 -2.36133 -0.787129 
1 0.353638 2.90397 -3.166 
1 3.51847 1.19122 0.469063 
1 0.87776 1.9552 -3.38067 
1 -0.0138137 1.57966 3.59528 
1 -0.159235 0.31264 -1.4292 
1 -0.848005 -0.212486 -0.707889 
1 -2.13131 -2.48983 -3.51954 
1 -0.729277 3.41888 2.4197 
1 -2.30114 -2.10169 -2.35893 
1 -0.100284 2.62473 1.72515 
1 -1.02698 2.52654 -2.70408 
1 -0.88055 0.740867 -0.196762 
1 1.84644 2.38732 -1.88484 
1 -1.96892 -2.24031 -0.121151 
1 1.54562 -2.88757 0.366521 
1 -3.04569 -1.30313 2.25101 
1 0.39194 -0.604508 0.307218 
1 -2.01552 0.118735 3.14178 
1 -1.80242 3.30467 -2.9809 
1 2.02961 -0.150821 1.24399 
1 3.53435 3.15742 -2.24172 
1 1.77883 0.142385 -2.79459 
1 -2.2381 -3.22644 2.3089 
1 -2.24706 3.63828 -1.35873 
1 -0.691773 -1.05001 0.866516 
1 0.865163 -0.508229 -2.73106 
1 2.59509 -2.72858 3.35101 
1 -0.454289 3.12201 -0.0916075 
1 -3.5361 0.451824 -1.45078 
1 -0.236369 3.48501 3.38105 
1 -3.45526 0.553296 1.19777 
1 -1.14909 3.57362 -1.13253 
1 -0.414622 -3.49012 0.521687 
1 1.95964 0.667242 -3.67255 
1 1.82988 -1.30281 3.142 
1 -1.7268 1.52866 1.77641 
1 0.874598 2.38205 -1.28641 
1 1.5209 -1.83069 0.535639 
1 -3.05777 1.37817 -1.77961 
1 -3.45193 1.78946 -2.73483 
1 -3.09902 -3.01036 2.89423 
1 -1.60893 -0.640066 1.33479 
1 -2.06978 0.954186 -1.80339 
1 0.976431 -1.54979 2.58684 
1 2.61305 0.594293 0.232691 
1 2.79329 2.85568 -1.48551 
1 1.95717 -1.35492 1.36765 
1 -2.13793 -0.0990191 -1.89016 
1 -2.62004 1.81337 3.57303 
1 -2.61157 3.68058 -0.295022 
1 -1.73231 3.04569 2.65665 
1 -3.46461 -3.3848 -2.58046 
1 -2.48031 1.36397 -2.76495 
1 1.4522 2.86258 2.52906 
1 0.127176 -3.49738 -1.75557 
1 1.13109 0.990642 -2.90749 
1 0.163031 0.640602 1.80229 
1 1.04763 2.37091 -0.22397 
1 2.45339 0.270998 -0.765764 
1 1.03343 0.123747 -3.59617 
1 2.52233 2.46294 -3.47956 
1 -2.56029 -1.54429 -3.22442 
1 -0.485851 -2.99735 -3.6974 
1 -2.34652 -3.14314 -2.66519 
1 -2.82486 0.817784 3.13295 
1 -1.71179 0.294501 -0.988834 
1 3.02261 0.610403 -3.7093 
1 0.13499 3.64643 1.81924 
1 3.72272 -0.762712 -0.526462 
1 1.70639 1.21655 -1.90603 
1 -2.4272 -1.32264 0.0213049 
1 -2.94939 -3.08889 -1.71648 
1 2.78522 -0.938519 0.931962 
1 0.0500975 -1.45833 -0.318041 
1 0.0783614 1.63428 2.38898 
1 1.74836 2.84712 0.860355 
1 -0.931382 -1.75056 0.0708988 
1 -0.910023 0.808587 3.67242 
1 -0.0855023 -0.488107 -3.19359 
1 -0.318982 -3.40453 -0.642326 
1 1.94954 -2.99565 -2.2863 
1 0.140549 -0.503554 -0.741316 
1 1.73746 1.82739 -0.910848 
1 2.59758 1.765 -1.52834 
1 -1.12794 1.32865 -1.48116 
1 1.10057 -1.20914 -0.250179 
1 -1.82463 0.470521 1.82227 
1 1.14025 3.63114 0.596625 
1 -1.42819 -0.721977 2.94061 
1 2.4845 -2.15293 -1.63467 
1 3.53944 0.895168 -2.40125 
1 2.89195 -1.38455 1.94663 
1 -2.09371 -3.16595 0.5114 
1 2.64362 1.45092 -0.463244 
1 0.973759 -2.64839 -1.96481 
1 3.1849 -2.39293 0.0844284 
1 -0.717846 -2.86611 -1.59895 
1 -0.842887 1.48994 2.88138 
1 3.60957 -0.637794 2.40584 
1 -1.69357 -1.53767 0.741102 
1 2.46569 3.03628 -2.58975 
1 3.41322 -3.12191 1.51058 
1 -0.530977 -1.52989 -2.85846 
1 -1.09854 0.371081 2.62663 
1 -3.30164 -2.27393 -2.86949 
1 -1.45884 -0.163944 -3.47919 
1 -3.1352 -0.712627 -3.48163 
1 -1.28156 3.53578 3.45856 
1 0.940752 3.46343 -1.28686 
1 -3.12022 -0.694312 0.435162 
1 -1.40913 -3.21006 -3.23579 
1 2.27488 -2.42137 -3.1504 
1 0.665445 -0.67375 2.14941 
1 2.5032 0.996301 -2.77571 
1 -2.53341 -2.20964 2.3837 
1 1.81313 -1.28646 -1.55294 
1 -2.81363 2.56874 1.1868 
1 1.99103 -0.706734 -0.636065 
2 1.62298 0.0590539 -0.940438 
2 0.404032 -3.00984 -2.51685 
2 -0.943438 -0.791651 -3.12715 
2 3.61733 -0.692363 0.898414 
2 2.42199 3.42439 1.09137 
2 -3.39686 3.27504 -2.92274 
2 1.79702 3.64606 -2.66596 
2 -0.370489 1.13749 -3.11728 
2 -1.64341 -1.45975 -0.396314 
2 1.78048 -3.38355 1.03141 
2 -1.35348 2.79581 -3.5203 
2 -0.815725 1.86771 -2.1657 
2 0.186342 -2.6467 -1.54309 
2 2.56976 0.166222 3.1162 
2 -3.13587 -1.56793 0.694172 
2 -3.56863 0.413331 3.4453 
2 -2.56781 3.62046 -3.2858 
2 1.27101 -0.661358 -1.97107 
2 1.22763 -0.173418 0.727552 
2 -1.46486 0.089035 -0.175389 
2 -1.69869 3.56981 0.886598 
2 2.18366 1.06657 -1.13894 
2 2.0314 -0.0073585 -0.0165804 
2 -0.710678 -3.65148 1.59853 
2 2.71273 -2.56415 -2.4033 
2 1.23759 -1.29356 -2.83687 
2 2.94559 -1.08766 3.55477 
2 2.56915 -3.03413 -1.60322 
2 -0.554873 -0.874294 -0.099434 
2 1.54005 3.07668 -0.0105202 
2 0.568373 2.95408 2.33135 
2 -3.46167 2.01794 -3.65361 
2 1.59367 -2.14248 -1.56306 
2 -1.31777 1.01721 -2.26533 
2 -3.10823 2.16715 -1.32324 
2 -0.892596 0.606878 -1.05753 
2 -3.03242 0.179234 0.499513 
2 -2.41058 0.465286 2.45675 
2 2.7093 -2.07413 -0.622431 
2 3.32529 -1.89466 -1.59009 
2 -1.76076 -1.87472 -3.02245 
2 3.45107 -3.05434 0.620143 
2 -1.48968 -0.287691 2.15534 
2 2.26506 -2.33935 0.43258 
2 2.22434 -1.96216 3.57618 
2 0.86519 -2.11768 -2.67044 
2 -1.2927 0.90059 1.23111 
2 -1.4567 -0.296515 -2.47936 
2 -0.736616 -3.36381 3.01187 
2 2.73113 0.939253 2.16862 
2 0.145855 -1.05008 -2.51166 
2 1.2014 2.96193 -1.93736 
2 -2.66965 0.650791 1.55731 
2 -2.37001 2.7603 -1.36718 
2 -2.598 -2.89813 -0.171283 
2 -2.4549 1.98448 1.70842 
2 -1.61951 -2.41887 0.696917 
2 -3.42491 -3.6667 1.17337 
2 -1.52413 -3.58992 2.63809 
2 0.0330979 3.54322 -2.54956 
2 -3.51303 -2.58307 -1.23353 
2 -2.30883 -2.66531 3.10386 
2 3.51916 1.53446 -0.362572 
2 0.978881 -1.40385 3.45657 
2 -2.81469 -0.650499 -0.43307 
2 -2.88857 -0.448275 -2.22337 
2 0.311772 2.41207 3.57419 
2 -2.14152 -0.748144 0.621771 
2 0.378861 1.27543 -2.57131 
2 3.59163 -3.02182 2.40852 
2 -0.535161 -2.40411 -2.93989 
2 -0.480577 1.53898 -0.0557871 
2 -3.0726 -3.67949 -1.06224 
2 3.57748 -1.58762 2.44758 
2 -0.226203 -1.92339 -3.6679 
2 -2.02829 -3.1543 1.4308 
2 0.389564 -3.43902 0.938774 
2 1.4247 -2.71224 -0.490041 
2 -2.2662 -0.511881 3.73018 
2 -2.94714 3.55913 2.85691 
2 2.54085 2.28974 -0.803219 
2 -1.81014 1.17867 -0.938481 
2 0.0382928 -2.11447 1.23064 
2 -3.46726 -1.5446 -3.37856 
2 0.929496 0.789036 0.000593245 
2 -3.27889 -1.38944 -0.19268 
2 -0.926658 2.83344 3.05374 
2 -1.28716 -1.45469 1.4895 
2 2.49242 -0.661556 1.7563 
2 -0.468597 -0.594156 -1.4134 
2 -0.88049 1.70424 3.72562 
2 2.53626 -3.21579 1.71983 
2 2.32828 3.29904 2.49452 
2 2.75925 -0.0699046 0.777617 
2 1.58831 0.230699 2.2957 
2 -1.68128 -2.52076 2.39981 
2 -0.959514 -1.45141 2.83032 
2 -0.874844 2.56201 -0.594211 
2 -2.8727 -1.95291 1.57344 
2 -3.6488 -2.51662 -3.67359 
