ITEM: TIMESTEP
338
ITEM: NUMBER OF ATOMS
500
ITEM: BOX BOUNDS xy xz yz pp pp pp
-3.7345 3.81666 0.082159
-3.7345 3.7345 0
-3.7345 3.7345 0
ITEM: ATOMS type xu yu zu 
1 0.0377335 -2.18941 -2.24495 
1 -0.921938 -1.78757 -1.79123 
1 -0.504732 -1.53552 -2.86184 
1 -1.28644 -2.45326 -2.51381 
2 -1.74295 -1.87878 -3.02154 
1 -3.27813 -1.21276 -2.53917 
1 -1.16012 -2.31609 -0.821484 
1 -3.27721 -2.26661 -2.87196 
1 -0.714379 -2.87481 -1.59455 
1 -1.47571 -1.2223 -2.52738 
1 -2.28182 -2.10104 -2.35654 
1 -2.83963 -1.39891 -0.948975 
1 -2.5328 -1.53793 -3.22126 
1 -3.10198 -0.703741 -3.47875 
1 -2.33769 -3.14556 -2.65407 
1 -0.112193 -2.36923 -0.783602 
1 -3.17791 -2.00675 -1.79633 
1 -2.40397 -1.1277 -1.9284 
1 -2.63759 -2.44205 -0.931802 
1 -1.85006 -2.73686 -1.60963 
1 -0.577692 -0.608281 -2.30518 
1 -0.871102 -1.26028 -0.83786 
1 -2.22579 -0.547616 -2.84866 
2 -1.621 -1.47518 -0.40666 
1 -1.86369 -1.6993 -1.24618 
1 -2.9404 -3.09115 -1.70435 
2 -0.519957 -2.40938 -2.93883 
1 -1.32752 -0.739072 -1.60425 
1 -3.46204 -3.38663 -2.56103 
2 -0.914684 -0.795657 -3.1266 
1 -1.98599 -0.724361 -0.800217 
1 -0.456998 -3.17999 -2.58049 
1 -0.0131364 -1.38901 -1.4549 
1 -0.812003 -0.222969 -0.70724 
2 -0.440395 -0.583749 -1.42529 
1 -2.92823 -0.404488 -1.30019 
1 -1.40178 -3.2152 -3.23547 
2 -0.534873 -0.894505 -0.0901564 
2 0.176038 -1.05891 -2.51406 
1 0.174736 -0.499756 -0.767163 
2 -1.42341 -0.306712 -2.46797 
2 -2.78432 -0.652485 -0.437587 
1 -1.09482 -2.13295 -3.5397 
1 0.0791602 -1.45393 -0.345897 
2 -3.43247 -1.53521 -3.38119 
2 -3.24769 -1.39287 -0.189309 
1 -1.61933 -1.1886 -3.58282 
1 -1.83612 -3.16597 -0.630893 
1 -3.41057 -3.08404 -0.539335 
1 -0.298311 -3.41654 -0.653144 
2 -2.85059 -0.443626 -2.2303 
1 -1.4371 -3.52447 -2.17672 
1 -1.95965 -2.24677 -0.11649 
1 -3.02139 -3.10218 -3.48648 
1 -1.41623 -0.161556 -3.48461 
2 -3.62797 -2.517 -3.67307 
1 0.125361 -3.5071 -1.75204 
2 -2.59107 -2.90273 -0.167128 
1 -0.0516217 -0.493906 -3.19733 
2 -3.49962 -2.57703 -1.22766 
1 -2.12431 -2.49494 -3.51025 
1 -2.1036 -0.0980848 -1.88189 
2 0.189207 -2.65544 -1.5456 
1 0.305488 -2.46969 -3.21942 
1 0.323336 -3.52279 -3.2513 
1 0.375718 -0.501211 -1.84713 
2 0.410872 -3.01066 -2.51376 
1 0.487336 -1.42087 -3.26962 
1 0.736999 -3.00332 -0.967341 
1 0.816521 -2.20977 -0.139347 
1 0.857643 -1.44446 -2.09293 
1 0.852426 -1.92535 -1.14871 
2 -3.06858 -3.6899 -1.05895 
2 0.889495 -2.12052 -2.6755 
1 0.900872 -0.51119 -2.73291 
1 0.986448 -2.6438 -1.96656 
1 1.13124 -0.616372 -1.13671 
1 1.13246 -1.19547 -0.240743 
1 1.22684 -0.0807831 -0.132851 
2 -0.212946 -1.93267 -3.66827 
1 1.24206 -2.88801 -3.02479 
2 1.2691 -1.29534 -2.83264 
1 -0.476537 -2.99867 -3.69469 
2 1.30129 -0.672542 -1.97344 
1 1.40507 -1.91471 -3.41567 
1 -3.68801 -1.13165 -1.54511 
2 1.43148 -2.7056 -0.49354 
1 -3.13885 -2.21436 -0.0151503 
1 0.952411 -3.72546 -2.37469 
1 1.47945 -0.828095 -3.52808 
1 1.48331 -3.59815 -0.459168 
2 1.60241 -2.12788 -1.5652 
1 1.75622 -1.92514 -2.40897 
1 1.77441 -2.93032 -1.26195 
1 1.84491 -1.27644 -1.55496 
1 1.83226 -1.93099 -0.697675 
1 -2.53447 -1.20404 1.26094 
1 -1.83083 -2.30244 1.56254 
1 -0.832738 -2.11793 1.10162 
1 -1.67586 -1.54246 0.742138 
2 0.0440712 -2.11852 1.23083 
2 -2.1205 -0.748925 0.624295 
1 -1.59758 -0.643245 1.34439 
1 -3.59858 -2.32442 0.931795 
2 -1.27516 -1.45715 1.49339 
1 -1.21205 -3.12642 1.10731 
2 -2.86117 -1.95126 1.57916 
2 -1.61324 -2.42488 0.703071 
1 -2.50224 -2.17579 0.779074 
1 -3.0878 -0.697074 0.433123 
1 -0.406942 -3.49001 0.503544 
2 -3.12766 -1.56695 0.702482 
1 -0.688401 -1.05217 0.870393 
1 -2.82893 -2.84682 1.47765 
1 -3.22484 -0.467462 1.52433 
1 -0.182684 -2.9477 1.385 
1 0.0108158 -1.33068 1.60907 
1 -0.531227 -0.139388 0.342903 
2 -0.706439 -3.65809 1.60358 
1 0.0804261 -0.328383 1.27851 
1 -1.39324 -0.758835 0.0887468 
1 -2.09446 -3.1677 0.521505 
1 -0.908484 -1.75154 0.0712541 
1 -2.40816 -0.040341 1.08536 
2 -2.0206 -3.15758 1.43742 
1 -3.16033 -3.19687 0.486734 
1 -1.1084 -2.8379 0.0905999 
1 -0.159461 -2.43097 0.333493 
1 -3.67074 -1.39714 1.39808 
1 0.397274 -0.594524 0.273289 
2 0.391524 -3.42889 0.906028 
1 0.515853 -3.19113 0.0459764 
1 0.403783 -1.57046 0.649791 
1 0.715178 -2.5574 0.883031 
1 0.989573 -1.82572 1.57063 
1 1.03686 -0.859063 1.12114 
1 1.02276 -3.29164 1.5037 
2 -3.42684 -3.65694 1.17997 
2 1.32405 -0.147937 0.749672 
1 -2.39688 -1.32127 0.0143197 
1 -2.25189 -0.108461 0.0349459 
1 1.55355 -2.88137 0.362843 
1 1.53826 -1.82115 0.554688 
2 1.76806 -3.38345 1.02826 
1 1.87278 -0.759196 0.427741 
1 -3.30334 1.09095 -3.47448 
1 -3.48743 0.458169 -1.45649 
1 -3.39203 1.80684 -2.74311 
1 -3.07527 1.62217 -0.651419 
1 -3.16491 0.12407 -0.385915 
1 -2.99875 1.38026 -1.78378 
1 -2.87641 0.438328 -2.39654 
1 -2.59955 0.257094 -3.44363 
1 -2.57921 0.771914 -0.9455 
1 -2.42444 1.36435 -2.76502 
1 -2.01192 0.953924 -1.80155 
1 -1.86476 1.04406 -3.63737 
1 -1.87278 0.873496 -0.112426 
2 -1.75204 1.17394 -0.933918 
1 -1.78169 0.479077 -2.72854 
1 -1.66631 0.290206 -0.982984 
2 -1.42103 0.0829786 -0.167079 
2 -1.26136 1.01393 -2.26641 
1 -1.14631 1.73891 -0.535068 
1 -1.08614 1.46786 -2.96593 
1 -1.06799 1.3223 -1.47779 
1 -1.07512 0.268009 -1.86134 
1 -3.64848 0.139331 -3.1461 
1 -0.842239 0.738788 -0.201075 
2 -0.841653 0.5956 -1.05866 
1 -0.710455 0.328454 -2.86051 
2 -0.431767 1.53409 -0.0479177 
1 -0.362215 1.09161 -2.20981 
2 -0.308325 1.13236 -3.11904 
1 -0.192214 1.22021 -0.895775 
1 -0.109331 0.315304 -1.4415 
1 0.149229 0.54131 -3.54747 
1 0.154159 0.439663 -0.230654 
1 0.329008 0.367435 -2.51586 
2 0.431963 1.27664 -2.55817 
1 0.633217 1.12305 -1.71628 
1 0.829191 1.43686 -0.658746 
1 0.862346 0.421144 -0.969087 
1 1.08357 0.120382 -3.58398 
1 1.17492 0.998274 -2.91108 
1 1.2029 0.212497 -1.92177 
2 1.66092 0.0693817 -0.935128 
1 1.72312 0.844459 -0.447396 
1 1.7633 1.19388 -1.91541 
1 1.7956 1.82617 -0.923495 
1 1.81952 0.164507 -2.75716 
1 1.90125 1.8375 -2.88975 
1 -3.41282 0.550072 1.1876 
1 -2.94029 1.49424 1.19561 
1 -2.8904 0.998589 0.201267 
2 -2.9946 0.176855 0.484917 
2 -2.63326 0.661405 1.55717 
1 -2.09216 0.962514 0.929105 
1 -1.79183 0.469081 1.82269 
1 -1.67149 1.52656 1.78136 
1 -1.43215 0.20844 0.692999 
2 -1.24842 0.888252 1.23341 
1 -1.15928 1.42115 0.513043 
1 -0.839721 0.0858032 1.58125 
1 -0.397157 0.774025 0.860322 
1 0.0569921 1.62684 1.32604 
1 0.21886 0.62677 1.80008 
1 0.3691 1.3681 0.303952 
1 0.617379 0.371881 0.699436 
1 1.00083 1.18405 1.2348 
2 0.973298 0.786011 -0.00566343 
1 1.14472 0.141646 1.60249 
1 1.45838 1.56001 0.284659 
1 1.6959 0.609508 0.615677 
1 1.83426 -2.53379 1.36394 
1 1.93942 -0.838608 -2.53222 
1 1.96224 0.888304 1.69642 
1 1.96605 -2.98516 -2.28747 
1 1.96425 -1.31935 1.38383 
1 1.99859 0.682335 -3.6442 
1 2.02355 -0.700793 -0.631324 
2 2.08353 -0.00563781 -0.00797548 
1 2.09569 -0.13407 1.24683 
1 2.12773 -0.227378 -1.65436 
2 2.23379 1.05897 -1.14216 
1 2.30123 -2.41898 -3.15863 
2 2.58611 -3.02217 -1.60204 
1 3.56864 -3.60297 -1.42707 
1 3.13419 -2.74467 -0.976199 
1 3.2673 -2.81084 -3.06018 
1 3.67486 -1.86746 -0.752137 
1 3.20113 -0.269338 -1.28323 
1 3.13941 -3.43564 -0.122593 
1 2.84691 -0.021291 -2.5967 
2 2.72404 -2.54247 -2.39873 
1 3.77169 -0.288173 -2.1872 
1 2.84913 -0.50414 -0.0383663 
2 3.34016 -1.88997 -1.58131 
1 2.82996 -1.28215 -0.999976 
1 3.24051 -1.88964 -3.57572 
2 2.72102 -2.06993 -0.630397 
1 3.76573 -0.761374 -0.527968 
1 2.52337 -3.65973 -0.999235 
1 3.34729 -0.887034 -3.11326 
1 3.48036 -2.67774 -1.96458 
1 2.30389 -2.81642 -0.331473 
1 2.86722 -3.48617 -2.27517 
1 3.23776 -1.81825 -2.50897 
1 2.29834 -3.46748 -3.30626 
1 2.85161 -0.970981 -2.03787 
1 2.47835 -0.333 -3.57231 
1 2.49982 -2.14522 -1.61994 
1 2.38206 -1.3643 -3.3001 
2 2.80629 -0.0841666 0.758088 
2 2.52982 -3.20921 1.72887 
2 2.27426 -2.34013 0.428093 
1 2.58153 -3.0705 0.831878 
1 3.25238 -0.201631 1.51376 
2 3.44673 -3.05569 0.627951 
2 3.64492 -0.69262 0.887133 
2 2.52941 -0.655602 1.77501 
1 3.40785 -3.1215 1.51819 
1 2.81591 -0.951746 0.942157 
1 2.49788 -1.55622 0.0601638 
1 3.1911 -2.39354 0.0880691 
1 2.81716 -2.03828 1.07854 
1 3.54293 -1.41132 0.335362 
1 3.24747 1.63291 -3.51022 
2 3.57776 1.53264 -0.363826 
1 2.49587 0.265992 -0.76249 
1 3.5445 1.36543 -1.24049 
1 2.70061 1.45037 -0.473536 
1 2.79463 0.670545 -1.71666 
1 3.43937 0.654891 -0.492981 
1 2.56456 1.01157 -2.75837 
1 2.65394 1.75162 -1.54326 
1 3.59726 0.916273 -2.3992 
1 3.05809 0.622344 -3.70027 
1 3.59969 0.0506735 0.413133 
1 2.53619 1.55947 0.638426 
1 2.7283 1.69708 1.70014 
1 2.93266 0.742208 1.26018 
1 2.6707 0.593861 0.227665 
1 3.56569 1.19709 0.46994 
1 -3.55794 3.33476 -0.527081 
2 -3.39841 2.02406 -3.66556 
2 -3.32572 3.28183 -2.92382 
1 -3.13466 3.03337 -1.49003 
2 -3.04216 2.16599 -1.32525 
1 -2.82608 2.6041 -3.16043 
1 -2.75046 2.64774 -0.5864 
1 -2.62157 3.36194 -2.37811 
1 -2.6239 2.32169 -2.12222 
1 -2.53415 3.67712 -0.290806 
2 -2.30163 2.75682 -1.36998 
1 -2.16778 3.63226 -1.35535 
1 -2.16247 1.8973 -1.22449 
1 -2.13404 1.89587 -0.158189 
1 -1.8553 2.19226 -3.15984 
1 -1.72798 3.30418 -2.98117 
1 -1.69087 2.78836 -0.704058 
1 -1.6868 2.92478 -1.97938 
1 -1.64303 1.87221 -2.16349 
2 -1.28852 2.79057 -3.52218 
1 -1.06668 3.5618 -1.12661 
1 -0.953722 2.39744 -1.43827 
1 -0.963037 2.52162 -2.70755 
2 -2.4963 3.60215 -3.29113 
2 -0.818658 2.55671 -0.590419 
2 -0.754055 1.86729 -2.16355 
1 -0.603589 3.42114 -3.12119 
1 -0.571639 3.25268 -2.04856 
1 -0.479466 2.50227 -3.6861 
1 -0.390416 3.11614 -0.0960761 
1 -0.0497397 3.05111 -1.13826 
1 -0.00987951 1.9808 -1.67664 
1 -0.0580523 1.95532 -2.81752 
1 0.0194422 2.1848 -0.530701 
2 0.108778 3.53913 -2.5499 
1 0.426822 2.86553 -2.10808 
1 0.41748 2.90191 -3.1742 
1 0.630433 3.30037 -0.299079 
1 0.937854 2.38189 -1.28965 
1 0.932289 1.95259 -3.38239 
1 0.97019 1.951 -2.29898 
1 1.01348 3.46117 -1.28441 
1 1.1056 2.39147 -0.226065 
2 1.27338 2.9637 -1.93517 
1 1.39123 3.60856 -3.42957 
1 1.45463 2.80952 -2.77095 
2 1.62018 3.08232 -0.0278678 
2 1.86341 3.66481 -2.67071 
1 1.91569 2.38764 -1.8953 
1 1.89952 2.9113 -0.888344 
1 -3.566 3.05221 1.57176 
1 -3.20561 3.20079 0.474984 
1 -3.12369 2.09544 0.302174 
1 -2.75936 2.56805 1.1931 
1 -2.46615 3.60997 1.24006 
2 -2.4022 1.98111 1.71232 
1 -2.14559 2.96183 0.401565 
1 -1.97611 1.98771 0.863625 
1 -1.77702 2.64336 1.64087 
2 -1.63112 3.56371 0.89334 
1 -1.48774 3.63031 1.77592 
1 -1.21521 2.48217 0.235036 
1 -0.834659 3.16091 1.02713 
1 -1.33066 3.58051 0.0513461 
1 -0.920124 2.09509 1.27776 
1 -0.217651 2.2408 0.500285 
1 -0.0404825 2.61815 1.716 
1 0.207875 3.6344 1.83509 
1 0.268271 3.17082 0.809223 
1 0.831262 2.25622 0.834495 
1 1.06453 3.09176 1.54851 
1 1.21411 3.63238 0.5812 
1 1.76518 1.88622 1.28442 
1 1.80035 2.83264 0.835466 
1 1.96797 3.51749 -1.80541 
1 1.95444 3.63905 1.77663 
1 2.17804 2.32954 -0.0186416 
1 2.27881 3.60911 0.262894 
1 2.25473 2.64724 1.8377 
1 3.60145 3.15039 -2.2493 
1 2.89678 3.01486 -0.376705 
1 3.59088 2.61528 -3.1753 
1 2.58208 2.46877 -3.48698 
1 3.62076 2.34881 -0.832181 
1 2.52785 3.0562 -2.60534 
1 3.72189 2.1963 -1.85499 
1 3.36137 3.61374 -3.18512 
1 2.85855 2.85061 -1.4977 
1 2.9237 2.03078 -2.53799 
2 2.60677 2.28645 -0.819921 
1 2.97792 3.41929 1.79294 
1 3.64413 2.0446 1.19404 
1 3.32146 3.54946 0.795012 
1 2.81292 2.62217 0.956427 
2 2.47009 3.41392 1.09084 
1 3.2845 2.17864 0.144167 
1 -1.02041 -1.97314 2.14214 
1 -0.568387 -2.25452 3.03185 
1 -0.961064 -3.02776 2.19612 
1 -2.35735 -0.385544 2.1896 
1 -2.52561 -2.21213 2.38849 
1 -1.40431 -0.728169 2.94682 
2 -1.67442 -2.52685 2.40263 
1 -1.89297 -1.34629 2.13886 
1 -1.7012 -1.89371 3.0504 
1 -2.45019 -1.13437 3.15015 
1 -3.02866 -1.30072 2.25208 
1 -2.2367 -3.23135 2.31557 
1 -3.5498 -2.28184 2.00732 
1 -1.43876 -2.89606 3.17843 
2 -1.5183 -3.59069 2.63951 
2 -1.46974 -0.287973 2.16386 
2 -0.94263 -1.4588 2.83513 
1 -0.864391 -0.926537 2.05568 
1 -2.94462 -2.07526 3.43075 
2 -0.729066 -3.36419 3.01324 
1 -3.09193 -3.00394 2.91179 
2 -2.29805 -2.66166 3.11073 
1 -0.072118 -1.30867 2.68985 
1 -2.27427 -3.526 3.36465 
1 -3.01683 -0.231325 3.06027 
1 -0.172601 -0.210731 2.38282 
1 0.039436 -3.14977 2.68969 
1 0.00809402 -2.22887 2.12716 
1 -0.511368 -0.166848 3.38113 
1 -3.27667 -3.55709 2.05966 
1 -0.593792 -1.18897 3.601 
1 -3.6353 -1.27628 3.24423 
1 0.465948 -2.13132 3.26918 
1 0.523193 -0.692511 3.34577 
1 0.695446 -0.691591 2.11029 
1 0.866162 -3.12979 3.39079 
1 0.975051 -3.67771 2.46559 
2 1.00596 -1.42808 3.45553 
1 0.983336 -1.55511 2.58496 
1 0.944784 -2.6104 2.32511 
2 -2.22805 -0.512659 3.73254 
1 1.56375 -2.35974 3.14292 
1 1.78975 -0.141026 3.11038 
1 1.74367 -0.652959 2.18102 
1 1.84006 -1.28628 3.11766 
2 -3.53034 0.420562 3.45331 
1 -3.49565 1.56473 2.99646 
1 -3.21088 0.344621 2.20324 
1 -2.78122 0.813564 3.13624 
1 -2.55625 1.80187 3.57903 
1 -2.66719 1.2563 2.18234 
2 -2.37532 0.464557 2.45611 
1 -1.98257 0.113131 3.13852 
1 -1.79573 1.12591 2.77363 
1 -1.05975 0.363057 2.62542 
1 -0.855528 0.802762 3.66801 
1 -0.792143 1.48138 2.87549 
1 -0.714872 1.11893 1.88803 
1 -0.0396134 0.716848 2.89018 
1 0.0457977 1.57223 3.58638 
1 0.133464 1.62327 2.3886 
2 -0.818672 1.6981 3.7211 
1 0.847038 0.148448 2.74133 
1 1.02781 1.06308 3.398 
1 1.08682 1.07625 2.30975 
2 1.6439 0.265014 2.31145 
1 1.8666 1.79815 2.37592 
1 1.97583 1.68427 3.47539 
1 1.94591 -1.89957 2.24918 
1 1.92731 -2.97232 2.35747 
1 2.09854 0.850166 2.79381 
2 2.20425 -1.95577 3.57087 
2 3.59692 -1.57834 2.45255 
1 2.77782 -1.71089 2.95337 
1 2.9042 -1.39379 1.95761 
1 2.65953 -0.691011 2.8118 
1 3.63074 -0.627375 2.40233 
2 3.59386 -3.01119 2.42284 
1 2.83746 -3.42626 2.58981 
2 2.98002 -1.07732 3.55791 
1 3.43692 -0.309856 3.42464 
1 3.49708 -3.2762 3.42458 
1 2.86305 -2.45838 2.14156 
1 3.58635 -2.32253 2.98143 
1 2.57871 -2.71938 3.32538 
1 3.66595 1.24141 1.96599 
1 2.91009 1.55231 2.82054 
2 2.78502 0.953611 2.16206 
2 2.63353 0.159117 3.12387 
1 3.35951 0.541083 2.74584 
1 2.52378 0.122041 2.19497 
1 1.83293 -3.74551 3.10763 
1 -3.21496 3.39409 3.67865 
1 -3.19823 2.15532 2.0884 
1 -3.02087 2.58495 3.05174 
2 -2.8682 3.57006 2.86507 
1 -2.60927 3.06239 2.17532 
1 -2.17986 2.12312 2.55859 
1 -2.15455 2.92674 3.58023 
1 -1.66837 3.04775 2.65717 
1 -1.43694 2.17748 3.3231 
1 -1.20739 3.53111 3.4586 
1 -0.962751 2.34025 2.30221 
2 -0.863235 2.82532 3.05274 
1 -0.659729 3.41478 2.42622 
1 -0.165608 3.47966 3.38545 
1 -0.0294095 2.58325 2.8012 
2 0.374231 2.4096 3.56692 
2 0.630231 2.95619 2.32454 
1 0.786192 3.14486 3.2533 
1 0.946459 2.05512 2.99182 
1 0.924692 2.11938 1.9148 
1 1.50554 2.85152 2.52397 
1 1.62492 2.66828 3.6204 
1 2.4335 2.52369 2.90621 
1 3.72084 3.3203 2.7072 
1 2.86487 3.35221 3.39659 
1 3.43237 2.43949 3.27461 
1 3.2607 2.45013 2.21242 
2 2.39877 3.29976 2.47806 
