ITEM: TIMESTEP
478
ITEM: NUMBER OF ATOMS
500
ITEM: BOX BOUNDS xy xz yz pp pp pp
-3.7345 3.83907 0.104566
-3.7345 3.7345 0
-3.7345 3.7345 0
ITEM: ATOMS type xu yu zu 
1 0.045317 -2.19025 -2.2476 
1 -0.917714 -1.79469 -1.79018 
1 -0.495128 -1.53787 -2.86429 
1 -1.28044 -2.45731 -2.51462 
2 -1.73609 -1.88163 -3.02163 
1 -3.26613 -1.20994 -2.53928 
1 -1.15637 -2.31727 -0.819096 
1 -3.26553 -2.26255 -2.87192 
1 -0.71432 -2.87826 -1.59289 
1 -1.46507 -1.22654 -2.52798 
1 -2.2725 -2.1001 -2.35486 
1 -2.83334 -1.39932 -0.949565 
1 -2.52157 -1.53623 -3.21957 
1 -3.08762 -0.701836 -3.48006 
1 -2.33476 -3.14587 -2.64655 
1 -0.107619 -2.37426 -0.779288 
1 -3.16906 -2.00739 -1.79708 
1 -2.39267 -1.12679 -1.92943 
1 -2.63202 -2.44068 -0.928031 
1 -1.84703 -2.74015 -1.60927 
1 -0.565735 -0.611797 -2.30863 
1 -0.862407 -1.26368 -0.838376 
1 -2.2105 -0.546746 -2.84949 
2 -1.61126 -1.48204 -0.409973 
1 -1.85858 -1.70244 -1.24781 
1 -2.93804 -3.0922 -1.69501 
2 -0.512491 -2.41193 -2.93952 
1 -1.31509 -0.742996 -1.60676 
1 -3.46192 -3.3899 -2.54807 
2 -0.904208 -0.797122 -3.12761 
1 -1.97708 -0.725363 -0.806064 
1 -0.453903 -3.18226 -2.58005 
1 -0.0106707 -1.38572 -1.46669 
1 -0.803282 -0.227085 -0.708185 
2 -0.431356 -0.574772 -1.43181 
1 -2.91982 -0.406418 -1.30398 
1 -1.39896 -3.21784 -3.23555 
2 -0.524095 -0.90009 -0.0870326 
2 0.187662 -1.06369 -2.51411 
1 0.183452 -0.494193 -0.777934 
2 -1.41126 -0.310867 -2.46535 
2 -2.774 -0.653173 -0.440255 
1 -1.09004 -2.13548 -3.53887 
1 0.0923647 -1.45074 -0.361166 
2 -3.41837 -1.53143 -3.38239 
2 -3.23509 -1.39436 -0.1858 
1 -1.60934 -1.18895 -3.58159 
1 -1.83462 -3.16724 -0.630351 
1 -3.40515 -3.0872 -0.541255 
1 -0.291628 -3.42221 -0.657859 
2 -2.83689 -0.442527 -2.23359 
1 -1.43356 -3.52814 -2.17643 
1 -1.95646 -2.24869 -0.113738 
1 -3.02272 -3.10846 -3.4751 
1 -1.40018 -0.16086 -3.48917 
2 -3.61763 -2.51517 -3.67204 
1 0.122805 -3.51113 -1.75004 
2 -2.58835 -2.90449 -0.164748 
1 -0.0384235 -0.497353 -3.19995 
2 -3.49339 -2.56995 -1.22256 
1 -2.12328 -2.49895 -3.50578 
1 -2.09069 -0.0991153 -1.87976 
2 0.187554 -2.65752 -1.5473 
1 0.314233 -2.47182 -3.22188 
1 0.325346 -3.5246 -3.2528 
1 0.387988 -0.502037 -1.85059 
2 0.413677 -3.01137 -2.51397 
1 0.4983 -1.42425 -3.27015 
1 0.742081 -3.00314 -0.975851 
1 0.826556 -2.19953 -0.134539 
1 0.86992 -1.4477 -2.09162 
1 0.851437 -1.92469 -1.14704 
2 -3.0662 -3.69839 -1.05651 
2 0.898033 -2.12209 -2.67638 
1 0.914206 -0.513307 -2.7332 
1 0.991168 -2.64259 -1.96806 
1 1.14154 -0.618179 -1.13413 
1 1.14519 -1.18793 -0.227758 
1 1.24047 -0.0807927 -0.124799 
2 -0.207439 -1.9365 -3.669 
1 1.24772 -2.8964 -3.02076 
2 1.28128 -1.29737 -2.83075 
1 -0.472882 -2.99944 -3.694 
2 1.31188 -0.674227 -1.97209 
1 1.41304 -1.92241 -3.40851 
1 -3.68056 -1.13358 -1.54649 
2 1.43124 -2.70375 -0.495855 
1 -3.13793 -2.21762 -0.0124131 
1 0.946903 -3.72902 -2.37319 
1 1.4878 -0.836135 -3.53061 
1 1.48585 -3.59669 -0.464792 
2 1.6028 -2.12 -1.56632 
1 1.77242 -1.92189 -2.40823 
1 1.77854 -2.92353 -1.26421 
1 1.85794 -1.27155 -1.55626 
1 1.83297 -1.9271 -0.697744 
1 -2.52724 -1.20437 1.26207 
1 -1.82784 -2.30244 1.56321 
1 -0.82734 -2.12094 1.1037 
1 -1.66829 -1.54425 0.742164 
2 0.0487222 -2.12488 1.23311 
2 -2.11107 -0.749561 0.625793 
1 -1.59339 -0.643679 1.34823 
1 -3.60112 -2.32376 0.934511 
2 -1.26905 -1.45714 1.49434 
1 -1.20714 -3.13033 1.10782 
2 -2.85702 -1.94987 1.58196 
2 -1.61049 -2.42702 0.70614 
1 -2.49945 -2.17154 0.779672 
1 -3.07711 -0.699003 0.432858 
1 -0.403896 -3.49014 0.492432 
2 -3.12694 -1.56591 0.708743 
1 -0.688344 -1.05133 0.86964 
1 -2.82414 -2.8447 1.47587 
1 -3.21745 -0.468409 1.52398 
1 -0.174042 -2.95757 1.38214 
1 0.00146321 -1.33705 1.61005 
1 -0.534634 -0.140404 0.339609 
2 -0.703583 -3.66382 1.60664 
1 0.0825089 -0.33417 1.26758 
1 -1.38644 -0.764304 0.0834921 
1 -2.09576 -3.1671 0.527757 
1 -0.896914 -1.75273 0.0718752 
1 -2.40182 -0.0394084 1.08542 
2 -2.01632 -3.15806 1.44221 
1 -3.16288 -3.19527 0.487317 
1 -1.10793 -2.83807 0.0923571 
1 -0.155133 -2.43738 0.336918 
1 -3.66984 -1.39594 1.40231 
1 0.391667 -0.59129 0.258263 
2 0.393047 -3.42038 0.882973 
1 0.525012 -3.18106 0.0351412 
1 0.384764 -1.56631 0.646249 
1 0.725207 -2.54964 0.882562 
1 0.988757 -1.80843 1.56482 
1 1.03767 -0.855424 1.08849 
1 1.00438 -3.30148 1.49739 
2 -3.42752 -3.65108 1.18332 
2 1.35465 -0.13853 0.757002 
1 -2.38426 -1.31898 0.0109086 
1 -2.24073 -0.112286 0.0335141 
1 1.55939 -2.87911 0.359838 
1 1.55274 -1.81908 0.563987 
2 1.75726 -3.38409 1.02703 
1 1.89498 -0.752617 0.430944 
1 -3.29194 1.09169 -3.47298 
1 -3.47194 0.460549 -1.45748 
1 -3.37598 1.81483 -2.74863 
1 -3.05812 1.6245 -0.650223 
1 -3.15046 0.125095 -0.390375 
1 -2.98184 1.38039 -1.78624 
1 -2.86013 0.438564 -2.39586 
1 -2.58387 0.258713 -3.44295 
1 -2.56435 0.774634 -0.947247 
1 -2.40983 1.3626 -2.76766 
1 -1.99511 0.952589 -1.80213 
1 -1.8442 1.04021 -3.63784 
1 -1.86409 0.870997 -0.110067 
2 -1.73496 1.17352 -0.930874 
1 -1.76541 0.476209 -2.72806 
1 -1.65284 0.290589 -0.981336 
2 -1.40847 0.0805826 -0.164093 
2 -1.24392 1.01135 -2.26706 
1 -1.12899 1.73884 -0.535556 
1 -1.06684 1.465 -2.96729 
1 -1.05071 1.31819 -1.47697 
1 -1.06134 0.264098 -1.86117 
1 -3.63019 0.139239 -3.14376 
1 -0.834264 0.739432 -0.204649 
2 -0.8251 0.590282 -1.06024 
1 -0.694285 0.326322 -2.86035 
2 -0.419087 1.53165 -0.0426614 
1 -0.345851 1.08992 -2.21063 
2 -0.288227 1.12818 -3.12023 
1 -0.175242 1.21624 -0.892993 
1 -0.0932768 0.318328 -1.44882 
1 0.166881 0.536092 -3.55189 
1 0.161444 0.436684 -0.222201 
1 0.346603 0.36812 -2.51947 
2 0.448393 1.27614 -2.55355 
1 0.651109 1.1223 -1.71235 
1 0.845614 1.43978 -0.656818 
1 0.871415 0.421515 -0.959313 
1 1.10364 0.118528 -3.57623 
1 1.18894 1.00041 -2.9119 
1 1.21107 0.209293 -1.91248 
2 1.67099 0.0700895 -0.933645 
1 1.7374 0.845029 -0.445918 
1 1.78067 1.18602 -1.91919 
1 1.81308 1.82405 -0.92916 
1 1.83795 0.176775 -2.74077 
1 1.91808 1.83955 -2.89498 
1 -3.40091 0.548855 1.18431 
1 -2.93151 1.49547 1.1981 
1 -2.88104 0.999154 0.202232 
2 -2.98266 0.175569 0.480304 
2 -2.62453 0.662706 1.55862 
1 -2.0836 0.964303 0.931337 
1 -1.78306 0.469283 1.82385 
1 -1.65838 1.52688 1.7816 
1 -1.4294 0.206349 0.696004 
2 -1.23852 0.885509 1.23342 
1 -1.14862 1.41878 0.514459 
1 -0.832129 0.0833107 1.58056 
1 -0.384152 0.76952 0.857324 
1 0.0681054 1.62399 1.32484 
1 0.232985 0.621234 1.79464 
1 0.382816 1.36594 0.30542 
1 0.636626 0.366161 0.70195 
1 1.01367 1.1832 1.23609 
2 0.985282 0.784406 -0.00655014 
1 1.1644 0.142074 1.60478 
1 1.47009 1.56472 0.282223 
1 1.71679 0.620089 0.619172 
1 1.82066 -2.54691 1.3764 
1 1.94967 -0.832695 -2.53545 
1 1.97861 0.892607 1.70094 
1 1.97541 -2.97828 -2.28705 
1 1.96325 -1.29827 1.39208 
1 2.01545 0.68751 -3.63418 
1 2.0337 -0.698738 -0.629673 
2 2.09826 -0.00249879 -0.00905316 
1 2.1187 -0.124961 1.25126 
1 2.14072 -0.223025 -1.65395 
2 2.24899 1.05593 -1.14413 
1 3.78566 -0.286863 -2.18473 
1 3.7812 -0.762311 -0.527968 
2 2.28358 -2.3413 0.420018 
1 2.3138 -2.41882 -3.16168 
1 2.30598 -2.81521 -0.337903 
1 2.29651 -3.46645 -3.31226 
2 2.59297 -3.01559 -1.60024 
1 3.5709 -3.60505 -1.42722 
1 3.14173 -2.7439 -0.972607 
1 3.27982 -2.8036 -3.05172 
1 3.67872 -1.86375 -0.746726 
1 3.21798 -0.267373 -1.27949 
1 3.13988 -3.43512 -0.122692 
1 2.86719 -0.0104538 -2.60125 
2 2.73028 -2.53013 -2.39522 
1 2.86417 -0.508504 -0.0415874 
2 3.34437 -1.88907 -1.57475 
1 2.83885 -1.27732 -1.00197 
1 3.25514 -1.88473 -3.57045 
2 2.7232 -2.06748 -0.636051 
1 2.5255 -3.65824 -1.00524 
1 3.3596 -0.882866 -3.1119 
1 3.48471 -2.67474 -1.95907 
1 2.87218 -3.48357 -2.27038 
1 3.25188 -1.8114 -2.5018 
1 2.86262 -0.959729 -2.04075 
1 2.48831 -0.331986 -3.56646 
1 2.50423 -2.14175 -1.61182 
1 2.39265 -1.36459 -3.30052 
2 2.8195 -0.0915243 0.750197 
2 2.52504 -3.20273 1.73493 
1 2.57478 -3.07276 0.836946 
1 3.26134 -0.20051 1.5086 
2 3.44198 -3.05614 0.631637 
2 3.65395 -0.694128 0.884267 
2 2.5412 -0.651368 1.78414 
1 3.40412 -3.12118 1.52203 
1 2.82615 -0.957714 0.94635 
1 2.50478 -1.55475 0.0563869 
1 3.18988 -2.39336 0.0905963 
1 2.80787 -2.04265 1.08597 
1 3.54998 -1.41177 0.33305 
1 3.26021 1.638 -3.51018 
2 3.59493 1.53101 -0.362736 
1 2.5085 0.26567 -0.762782 
1 3.56195 1.36697 -1.23859 
1 2.71736 1.44922 -0.477341 
1 2.81659 0.668733 -1.7148 
1 3.45331 0.654152 -0.494658 
1 2.58642 1.02365 -2.75067 
1 2.67105 1.74644 -1.55031 
1 3.61786 0.922208 -2.39966 
1 3.0733 0.624306 -3.68941 
1 3.61336 0.0492119 0.409002 
1 2.54678 1.55951 0.633221 
1 2.74325 1.70349 1.69319 
1 2.94486 0.745276 1.25926 
1 2.68794 0.593005 0.226813 
1 3.57766 1.20037 0.472611 
1 -3.53688 3.33337 -0.525004 
2 -3.38235 2.02492 -3.6711 
2 -3.30578 3.28471 -2.92352 
1 -3.11579 3.03056 -1.49357 
2 -3.02262 2.16452 -1.3269 
1 -2.80676 2.60827 -3.16308 
1 -2.73048 2.64817 -0.588783 
1 -2.59836 3.35966 -2.37892 
1 -2.6041 2.31959 -2.12514 
1 -2.50961 3.67523 -0.287858 
2 -2.28218 2.75512 -1.37283 
1 -2.14304 3.62918 -1.3543 
1 -2.14423 1.89592 -1.22525 
1 -2.11596 1.89569 -0.158415 
1 -1.83843 2.19132 -3.15816 
1 -1.70602 3.30387 -2.98256 
1 -1.67262 2.78814 -0.704703 
1 -1.66643 2.92198 -1.98167 
1 -1.62436 1.86862 -2.16436 
2 -1.27086 2.78644 -3.52324 
1 -1.04206 3.55746 -1.12475 
1 -0.936512 2.39382 -1.43861 
1 -0.944598 2.51879 -2.70856 
2 -2.4773 3.59116 -3.29311 
2 -0.802607 2.55607 -0.591823 
2 -0.736201 1.86545 -2.16346 
1 -0.582229 3.4183 -3.11925 
1 -0.548823 3.24674 -2.04844 
1 -0.46203 2.49747 -3.68656 
1 -0.373951 3.11343 -0.0974812 
1 -0.0275689 3.04379 -1.13877 
1 0.00742933 1.97801 -1.67607 
1 -0.0401423 1.95274 -2.81838 
1 0.0329501 2.18052 -0.527629 
2 0.132147 3.53694 -2.55033 
1 0.447621 2.86009 -2.11117 
1 0.434859 2.90015 -3.17718 
1 0.645293 3.30578 -0.296027 
1 0.95585 2.37786 -1.29184 
1 0.945052 1.94895 -3.38244 
1 0.990905 1.94624 -2.29871 
1 1.03037 3.45595 -1.28079 
1 1.12225 2.39718 -0.228838 
2 1.29301 2.96245 -1.93255 
1 1.41309 3.60218 -3.43029 
1 1.46879 2.80781 -2.76926 
2 1.64297 3.08398 -0.0365629 
2 1.87911 3.68054 -2.67195 
1 1.93664 2.38784 -1.89959 
1 1.91967 2.91015 -0.895464 
1 -3.5468 3.06326 1.57933 
1 -3.1861 3.20471 0.478598 
1 -3.10543 2.09899 0.302682 
1 -2.74757 2.5689 1.19769 
1 -2.44503 3.60961 1.24768 
2 -2.39086 1.98057 1.71524 
1 -2.12731 2.96248 0.408763 
1 -1.96485 1.98857 0.86479 
1 -1.76575 2.64467 1.64266 
2 -1.61201 3.56313 0.896116 
1 -1.46346 3.62887 1.77715 
1 -1.19947 2.4803 0.234825 
1 -0.814014 3.16332 1.02209 
1 -1.31304 3.57982 0.0536565 
1 -0.908839 2.09733 1.27612 
1 -0.201558 2.24318 0.503017 
1 -0.027466 2.61623 1.71424 
1 0.288363 3.17598 0.815956 
1 0.842897 2.25554 0.83442 
1 1.08603 3.08829 1.54867 
1 1.23494 3.63341 0.572843 
1 1.77773 1.88523 1.28324 
1 1.8099 2.82583 0.823449 
1 1.98329 3.52291 -1.80674 
1 1.96901 3.64967 1.77867 
1 2.19608 2.32784 -0.0276796 
1 2.29999 3.60801 0.261232 
1 2.26306 2.65343 1.83017 
1 3.6181 3.14432 -2.25321 
1 2.91483 3.01521 -0.382089 
1 3.6101 2.62338 -3.18884 
1 2.59747 2.47674 -3.48979 
1 3.63959 2.35044 -0.833985 
1 2.54014 3.07021 -2.61219 
1 3.74053 2.19287 -1.85543 
1 3.38426 3.62335 -3.18133 
1 2.8762 2.84874 -1.50323 
1 2.93973 2.04983 -2.53984 
2 2.6269 2.28427 -0.826946 
1 2.99016 3.4227 1.78524 
1 3.6613 2.05804 1.19338 
1 3.33765 3.54799 0.794479 
1 2.82248 2.62122 0.949256 
2 2.47548 3.40827 1.09054 
1 3.30119 2.17925 0.141285 
1 -1.01745 -1.97444 2.14265 
1 -0.567683 -2.25627 3.03194 
1 -0.952682 -3.03002 2.19737 
1 -2.35142 -0.385707 2.18832 
1 -2.5219 -2.21418 2.3895 
1 -1.39664 -0.729106 2.95047 
2 -1.67018 -2.53163 2.40222 
1 -1.88845 -1.34749 2.14125 
1 -1.69763 -1.89656 3.05192 
1 -2.44085 -1.13159 3.15015 
1 -3.02238 -1.30024 2.25331 
1 -2.23677 -3.23499 2.32039 
1 -3.54609 -2.28256 2.00888 
1 -1.43525 -2.89872 3.17939 
2 -1.51534 -3.59195 2.63977 
2 -1.46502 -0.286614 2.1681 
2 -0.938796 -1.46085 2.8361 
1 -0.862842 -0.925917 2.0602 
1 -2.93645 -2.07028 3.43282 
2 -0.725106 -3.36588 3.0136 
1 -3.0889 -3.00099 2.92208 
2 -2.29265 -2.66027 3.11305 
1 -0.067891 -1.31038 2.68839 
1 -2.27241 -3.52335 3.37376 
1 -3.008 -0.229353 3.05859 
1 -0.156172 -0.217701 2.37483 
1 0.049261 -3.14694 2.704 
1 0.00933744 -2.23642 2.12767 
1 -0.493438 -0.172385 3.37455 
1 -3.27453 -3.54691 2.06459 
1 -0.585603 -1.1918 3.6004 
1 -3.62637 -1.27087 3.24374 
1 0.465438 -2.1367 3.26284 
1 0.541042 -0.701407 3.34311 
1 0.707393 -0.701795 2.08372 
1 0.881749 -3.12777 3.39545 
1 0.983861 -3.67208 2.46799 
2 1.01813 -1.44352 3.45466 
1 0.983715 -1.55429 2.58318 
1 0.95535 -2.60624 2.30588 
2 -2.21337 -0.510882 3.73175 
1 1.55454 -2.34261 3.13695 
1 1.80545 -0.130063 3.11721 
1 1.7529 -0.633727 2.18801 
1 1.84347 -1.2789 3.10615 
2 -3.5169 0.421861 3.45626 
1 -3.48204 1.56005 2.99585 
1 -3.20441 0.346518 2.20201 
1 -2.76766 0.813115 3.13835 
1 -2.53912 1.79588 3.58459 
1 -2.65659 1.2573 2.18449 
2 -2.36849 0.463404 2.45549 
1 -1.97123 0.113141 3.13561 
1 -1.78289 1.12363 2.77223 
1 -1.04468 0.360508 2.62423 
1 -0.835992 0.797461 3.66669 
1 -0.777391 1.47445 2.87346 
1 -0.701497 1.11579 1.8848 
1 -0.020554 0.709983 2.8851 
1 0.0638482 1.56799 3.58149 
1 0.147291 1.61906 2.38679 
2 -0.799878 1.69259 3.71867 
1 0.862578 0.133887 2.72879 
1 1.04866 1.05666 3.39707 
1 1.10207 1.07227 2.31189 
2 1.66273 0.276285 2.31498 
1 1.88319 1.79977 2.3749 
1 2.0007 1.68551 3.47454 
1 1.9493 -1.90047 2.24396 
1 1.93378 -2.97422 2.3776 
1 2.12122 0.854641 2.80034 
2 2.19783 -1.95143 3.57024 
2 3.6034 -1.57474 2.45237 
1 2.78105 -1.70772 2.96149 
1 2.90536 -1.39591 1.96308 
1 2.66901 -0.687888 2.81551 
1 3.63671 -0.624239 2.40058 
2 3.59592 -3.006 2.43091 
1 2.84504 -3.43215 2.59004 
2 2.9919 -1.07302 3.56093 
1 3.44663 -0.304794 3.42564 
1 3.49451 -3.2673 3.42733 
1 2.86706 -2.45908 2.15303 
1 3.59339 -2.31456 2.9846 
1 2.57121 -2.71582 3.31531 
1 3.67882 1.24516 1.961 
1 2.92504 1.56394 2.8108 
2 2.80071 0.960943 2.15922 
2 2.6526 0.161408 3.13066 
1 3.37377 0.555606 2.75428 
1 2.54512 0.12823 2.20042 
1 0.228425 3.6283 1.85549 
1 1.83784 -3.76453 3.11121 
1 -3.19959 3.39587 3.67678 
1 -3.18769 2.15827 2.09407 
1 -3.00332 2.57838 3.06169 
2 -2.84143 3.57628 2.87007 
1 -2.59741 3.06201 2.18288 
1 -2.16531 2.12237 2.56083 
1 -2.13376 2.92629 3.57915 
1 -1.65185 3.04776 2.65657 
1 -1.42107 2.17112 3.32411 
1 -1.1862 3.52754 3.45848 
1 -0.949483 2.33548 2.30248 
2 -0.848443 2.8181 3.0533 
1 -0.64302 3.40992 2.43134 
1 -0.14624 3.47529 3.38845 
1 -0.0134368 2.57975 2.79983 
2 0.39176 2.40836 3.56426 
2 0.647879 2.95079 2.32449 
1 0.804119 3.14525 3.24896 
1 0.961384 2.04898 2.99065 
1 0.937622 2.11643 1.91414 
1 1.51821 2.8471 2.52277 
1 1.63504 2.66018 3.62149 
1 2.44668 2.53326 2.90492 
1 3.75051 3.31667 2.70398 
1 2.89968 3.35185 3.39891 
1 3.44689 2.43508 3.26511 
1 3.26983 2.45937 2.20565 
2 2.41907 3.30228 2.46925 
