ITEM: TIMESTEP
1023
ITEM: NUMBER OF ATOMS
500
ITEM: BOX BOUNDS xy xz yz pp pp pp
-3.7345 3.86894 0.134442
-3.7345 3.7345 0
-3.7345 3.7345 0
ITEM: ATOMS type xu yu zu 
1 0.0476807 -2.25628 -2.29522 
1 -0.940429 -1.80559 -1.8319 
1 -0.581567 -1.61396 -2.86174 
1 -1.25493 -2.55022 -2.52827 
2 -1.67065 -1.90788 -2.97852 
1 -3.28556 -1.11606 -2.53568 
1 -1.16311 -2.36548 -0.879482 
1 -3.33551 -2.23318 -2.86325 
1 -0.642258 -2.86102 -1.64373 
1 -1.52734 -1.21322 -2.49968 
1 -2.18553 -2.09658 -2.25089 
1 -2.83814 -1.37975 -0.951802 
1 -2.51387 -1.57029 -3.07377 
1 -2.98291 -0.742775 -3.52261 
1 -2.27532 -3.13465 -2.60637 
1 -0.125901 -2.40852 -0.717242 
1 -3.16131 -1.95677 -1.82483 
1 -2.42867 -1.09525 -1.90378 
1 -2.60171 -2.44367 -0.982789 
1 -1.80262 -2.82119 -1.61056 
1 -0.583894 -0.701372 -2.27159 
1 -0.822701 -1.32013 -0.834833 
1 -2.23574 -0.503423 -2.81091 
2 -1.61486 -1.50735 -0.448756 
1 -1.86085 -1.70489 -1.2673 
1 -2.9599 -3.06366 -1.74792 
2 -0.497531 -2.50157 -2.95967 
1 -1.32652 -0.781695 -1.5725 
1 -3.49491 -3.44451 -2.57033 
2 -0.985524 -0.855465 -3.11266 
1 -2.00213 -0.70626 -0.81384 
1 -0.413175 -3.28088 -2.61285 
1 0.00707028 -1.58833 -1.43802 
1 -0.791941 -0.259156 -0.738925 
2 -0.428075 -0.737845 -1.40078 
1 -2.97213 -0.340896 -1.27271 
1 -1.40967 -3.30957 -3.26755 
2 -0.459172 -0.840214 -0.168151 
2 0.110501 -1.25154 -2.44142 
1 0.188863 -0.653866 -0.760166 
2 -1.4203 -0.319716 -2.424 
2 -2.77471 -0.641425 -0.422469 
1 -1.07832 -2.2209 -3.54935 
1 0.0705751 -1.52758 -0.219033 
2 -3.3958 -1.50486 -3.36954 
2 -3.22285 -1.39037 -0.18308 
1 -1.67795 -1.21483 -3.55277 
1 -1.80774 -3.22119 -0.633671 
1 -3.39688 -3.08657 -0.59162 
1 -0.317674 -3.44699 -0.675541 
2 -2.85463 -0.389507 -2.18197 
1 -1.38456 -3.59911 -2.18509 
1 -1.93517 -2.28071 -0.151723 
1 -2.98575 -3.07016 -3.42416 
1 -1.43396 -0.180819 -3.4822 
2 -3.59287 -2.52731 -3.70985 
1 0.214406 -3.45933 -1.73972 
2 -2.5603 -2.92759 -0.227897 
1 -0.140448 -0.648507 -3.19916 
2 -3.47431 -2.52552 -1.24852 
1 -2.08367 -2.50342 -3.45442 
1 -2.08948 -0.0833044 -1.81633 
2 0.253761 -2.55239 -1.4943 
1 0.322596 -2.56005 -3.2632 
1 0.368814 -3.65817 -3.26366 
1 0.369487 -0.685268 -1.81221 
2 0.446843 -3.05553 -2.55238 
1 0.479599 -1.52269 -3.2021 
1 0.745557 -2.99823 -0.878031 
1 0.875477 -2.22282 -0.0965161 
1 0.886718 -1.56216 -2.13618 
1 0.934332 -1.97059 -1.14034 
2 -3.10756 -3.69977 -1.13856 
2 0.934078 -2.17055 -2.74815 
1 0.801601 -0.635324 -2.73402 
1 0.98903 -2.67234 -1.97837 
1 1.15825 -0.539606 -1.13677 
1 1.13372 -1.18273 -0.267526 
1 1.20326 -0.034722 -0.176255 
2 -0.2075 -1.9561 -3.63156 
1 1.29504 -2.90856 -3.04071 
2 1.31687 -1.30358 -2.94228 
1 -0.463507 -3.08558 -3.72398 
2 1.2463 -0.779743 -1.97686 
1 1.42371 -1.95643 -3.51959 
2 1.48589 -2.73752 -0.430372 
1 -3.0897 -2.21683 -0.0679922 
1 1.04158 -3.69655 -2.38622 
1 1.44376 -0.614204 -3.53617 
1 1.58354 -3.63297 -0.388796 
2 1.63507 -2.15506 -1.67004 
1 1.83059 -1.85528 -2.48712 
1 1.78414 -2.91584 -1.23506 
1 1.82529 -1.29362 -1.56058 
1 1.88068 -1.92879 -0.680082 
1 -2.48633 -1.18307 1.24932 
1 -1.78133 -2.34992 1.54416 
1 -0.802529 -2.15712 1.05997 
1 -1.61239 -1.56424 0.770471 
2 0.0904421 -2.14687 1.25218 
2 -2.01784 -0.802066 0.609585 
1 -1.30949 -0.620947 1.124 
1 -3.52893 -2.27406 0.903837 
2 -1.07195 -1.41424 1.44931 
1 -1.18802 -3.16666 1.06675 
2 -2.64545 -1.96969 1.60353 
2 -1.56512 -2.45154 0.653498 
1 -2.45308 -2.16206 0.744628 
1 -3.05259 -0.666516 0.450891 
1 -0.333216 -3.47981 0.542467 
2 -3.07215 -1.53597 0.70282 
1 -0.511754 -1.15923 0.654882 
1 -2.7712 -2.8451 1.42531 
1 -3.17 -0.387902 1.52045 
1 -0.217376 -2.91672 1.48902 
1 -0.167444 -1.38853 1.59676 
1 -0.588058 -0.134358 0.334758 
2 -0.7008 -3.66184 1.60514 
1 -0.0336944 -0.337609 1.24739 
1 -1.34116 -0.825767 0.0281651 
1 -2.06097 -3.19692 0.485556 
1 -0.939653 -1.87413 0.0316963 
1 -2.25437 -0.14217 1.12487 
2 -1.9786 -3.19012 1.4158 
1 -3.10623 -3.16264 0.436832 
1 -1.0467 -2.90791 0.0418303 
1 -0.0683963 -2.44975 0.385933 
1 -3.63187 -1.33881 1.39275 
1 0.397617 -0.595765 0.291554 
2 0.38253 -3.34496 1.03648 
1 0.650587 -3.22754 0.172801 
1 0.50569 -1.57279 0.738506 
1 0.830121 -2.54942 0.977201 
1 1.07126 -1.77021 1.67831 
1 1.1506 -0.836189 1.0925 
2 -3.31725 -3.55316 1.1864 
2 1.28343 -0.0941229 0.693838 
1 -2.36815 -1.33198 0.0159745 
1 -2.19557 -0.15508 0.0600228 
1 1.67065 -2.86946 0.437441 
1 1.62199 -1.79243 0.52973 
2 1.95245 -3.3204 1.18396 
1 1.8985 -0.718121 0.382061 
1 -3.23146 1.07758 -3.4841 
1 -3.55735 0.561743 -1.40282 
1 -3.19434 1.52928 -0.75556 
1 -3.1297 0.142818 -0.305556 
1 -2.98332 1.37918 -1.81343 
1 -2.81636 0.469895 -2.40068 
1 -2.47514 0.277463 -3.48503 
1 -2.58764 0.710281 -0.979488 
1 -2.33938 1.39515 -2.77716 
1 -1.99634 0.978298 -1.78164 
1 -1.72673 1.03665 -3.63713 
1 -1.99454 0.856671 -0.0724785 
2 -1.827 1.19936 -0.872696 
1 -1.74544 0.485816 -2.69128 
1 -1.61758 0.340251 -0.926147 
2 -1.35501 0.0529473 -0.135789 
2 -1.22096 0.984229 -2.18338 
1 -1.26981 1.80186 -0.482271 
1 -0.888708 1.37312 -2.87711 
1 -1.07813 1.2877 -1.36275 
1 -1.05478 0.2133 -1.80553 
1 -3.4845 0.104156 -3.17654 
1 -0.887001 0.808961 -0.229228 
2 -0.746291 0.551065 -1.05164 
1 -0.73699 0.209642 -2.80862 
2 -0.614381 1.5879 0.120007 
1 -0.345749 0.976014 -2.0523 
2 -0.1779 0.874698 -2.9746 
1 -0.0856094 1.13725 -0.976064 
1 -0.0568175 0.161665 -1.42299 
1 0.230747 0.286331 -3.54913 
1 0.10891 0.332394 -0.310669 
1 0.24793 0.236795 -2.48527 
2 0.714997 1.0905 -2.90186 
1 0.707906 1.0938 -1.93505 
1 0.879707 1.55965 -0.752918 
1 0.8712 0.52364 -1.01793 
1 1.16164 0.326737 -3.06756 
1 1.55159 1.20371 -2.60012 
1 1.15121 0.0888108 -1.98993 
2 1.67433 0.157824 -0.929126 
1 1.7363 0.94771 -0.462224 
1 1.75252 0.831525 -1.54714 
1 2.05903 0.309055 -2.50334 
1 -3.40474 0.61805 1.23651 
1 -3.1431 1.62643 1.19452 
1 -3.04408 1.06392 0.219446 
2 -2.88674 0.228239 0.585374 
2 -2.68065 0.398488 1.63951 
1 -2.31972 0.915149 1.00407 
1 -1.78419 1.58327 1.68281 
1 -1.45034 0.346325 0.68076 
2 -1.31673 0.932118 1.29906 
1 -1.35795 1.42843 0.567233 
1 -0.875709 0.199829 1.63317 
1 -0.496053 0.813161 0.797359 
1 -0.0367072 1.58096 1.30072 
1 0.13744 0.628838 1.76884 
1 0.253105 1.35897 0.165443 
1 0.546917 0.414165 0.652791 
1 0.947243 1.19961 1.24797 
2 0.92023 0.822132 -0.109031 
1 1.08618 0.151348 1.56263 
1 1.32434 1.64606 0.260689 
1 1.63206 0.68421 0.565071 
1 1.93473 -2.47095 1.43293 
1 1.8898 -0.746481 -2.56404 
1 1.89504 0.946511 1.66812 
1 1.99976 -2.86297 -2.2562 
1 2.03166 -1.34877 1.3929 
1 2.08087 0.553924 -3.59683 
1 2.05848 -0.663771 -0.642235 
2 2.06624 0.0481204 -0.0432479 
1 2.05569 -0.0655762 1.17721 
1 2.11458 -0.239121 -1.60127 
2 2.46269 1.13576 -1.15847 
1 3.79542 -0.745249 -0.502681 
2 2.37218 -2.27679 0.406156 
1 2.32398 -2.44863 -3.21546 
1 2.3638 -2.79466 -0.322433 
1 2.39438 -1.3897 -3.28367 
1 2.45601 1.51454 -1.97038 
1 2.37869 1.54468 0.641118 
1 -2.29898 1.83792 -0.225331 
1 -1.52422 1.84316 -2.15998 
2 -0.632305 1.79424 -2.0418 
1 0.118798 1.72538 -2.6497 
2 1.99568 3.89946 -2.74485 
1 1.31881 3.82763 0.982761 
1 -0.727381 0.729547 3.74285 
1 0.1682 1.36245 3.81306 
2 -1.05928 1.61027 3.79038 
1 2.39272 -3.468 -3.47257 
2 2.47998 -0.617526 1.69693 
1 -3.69832 -1.09359 -1.56233 
1 3.77283 -0.175547 -2.152 
2 2.64943 -3.04074 -1.66238 
1 3.53926 -3.58418 -1.54873 
1 3.16867 -2.72459 -1.01051 
1 3.29461 -2.84781 -3.14772 
1 3.67532 -1.82495 -0.755895 
1 3.20712 -0.268005 -1.22167 
1 3.17861 -3.42624 -0.0676837 
1 3.00193 0.0840419 -2.82527 
2 2.77317 -2.5159 -2.46964 
1 2.87944 -0.414418 -0.0446059 
2 3.36269 -1.87849 -1.58706 
1 2.8166 -1.27837 -1.08437 
1 3.29214 -1.8778 -3.56944 
2 2.77217 -2.0464 -0.64589 
1 2.56683 -3.60789 -0.993888 
1 3.40168 -0.86914 -3.16992 
1 3.50249 -2.6435 -2.01679 
1 2.86048 -3.4653 -2.40978 
1 3.20853 -1.73937 -2.48764 
1 2.87172 -0.797317 -2.13469 
1 2.51752 -0.405623 -3.63541 
1 2.52682 -2.15191 -1.65002 
2 2.83601 -0.0383118 0.794675 
2 2.63571 -3.01917 1.70696 
1 2.68135 -3.00667 0.808494 
1 3.27022 -0.186115 1.55647 
2 3.53096 -3.00772 0.621099 
2 3.66996 -0.638684 0.900047 
1 3.50189 -3.05821 1.5022 
1 2.83311 -0.900716 0.917552 
1 2.57039 -1.49297 0.0178104 
1 3.24853 -2.36161 0.0739654 
1 2.90043 -1.98465 1.08116 
1 3.5844 -1.3777 0.355615 
1 3.34183 1.66303 -3.59968 
2 3.59729 1.60621 -0.205511 
1 2.52107 0.353064 -0.771146 
1 3.28903 1.41505 -1.27248 
1 2.70622 1.49327 -0.39589 
1 2.85979 0.549176 -1.80824 
1 3.49203 0.756193 -0.422485 
1 2.67339 1.13308 -2.9228 
1 3.65166 0.945269 -2.46225 
1 3.63118 0.116594 0.462084 
1 2.66958 1.78883 1.67964 
1 2.86274 0.738346 1.28908 
1 2.66048 0.61181 0.246497 
1 3.45734 1.29302 0.609185 
1 -3.30742 1.85583 -2.76497 
1 1.92789 1.85979 -1.09059 
1 2.09685 2.05068 -2.8963 
2 -3.20937 3.24722 -2.95027 
1 -3.13724 3.03047 -1.56754 
2 -2.96762 2.14625 -1.33949 
1 -2.60558 2.618 -3.12143 
1 -2.82211 2.64864 -0.627759 
1 -2.52862 3.37862 -2.37168 
1 -2.54423 2.31646 -2.11589 
1 -2.50502 3.65545 -0.377666 
2 -2.30648 2.80044 -1.37067 
1 -2.12604 3.65912 -1.40117 
1 -2.08703 1.94456 -1.24842 
1 -1.62416 2.11782 -3.18577 
1 -1.62964 3.19215 -2.94423 
1 -1.76641 2.81636 -0.658523 
1 -1.61177 2.87936 -1.91601 
2 -1.19912 2.78033 -3.57846 
1 -1.01938 3.45347 -1.1081 
1 -0.873804 2.35537 -1.37745 
1 -0.757243 2.43801 -2.63404 
2 -2.33685 3.65352 -3.23706 
2 -0.904792 2.68618 -0.542569 
1 -0.549102 3.33392 -3.1953 
1 -0.421882 3.23615 -2.0358 
1 -0.480072 2.29549 -3.67087 
1 -0.28598 3.11558 -0.0850073 
1 -5.92525e-05 2.98081 -1.09814 
1 0.149953 1.99604 -1.59556 
1 -0.237264 2.08632 -0.531601 
2 0.27713 3.50327 -2.49471 
1 0.624562 2.91123 -1.97238 
1 0.311612 2.73125 -2.99498 
1 0.71053 3.41409 -0.435431 
1 1.06053 2.56865 -1.07071 
1 1.03834 1.89111 -3.24963 
1 1.28441 2.03003 -1.979 
1 1.24912 3.60383 -1.33524 
1 0.676628 2.42509 -0.0883352 
2 1.50254 2.92197 -1.82141 
1 1.54213 3.59684 -3.45232 
1 1.38955 2.80974 -2.72696 
2 1.45243 2.93688 -0.348949 
1 2.27239 2.53344 -1.95427 
1 2.04947 2.96164 -1.01058 
1 -3.18901 3.27186 0.355883 
1 -3.25973 2.14602 0.23914 
1 -2.92989 2.67811 1.19728 
1 -2.37825 3.59962 1.25207 
2 -2.53765 2.05556 1.68667 
1 -2.15695 2.99099 0.399628 
1 -2.22985 1.98262 0.798439 
1 -1.85927 2.65764 1.51871 
2 -1.56047 3.51489 0.869316 
1 -1.42073 3.58226 1.74376 
1 -1.23565 2.49315 0.295418 
1 -0.723187 3.1693 1.00821 
1 -1.25118 3.53061 0.0365513 
1 -0.964264 2.12145 1.27434 
1 -0.228905 2.27799 0.530394 
1 -0.0386743 2.57036 1.69378 
1 0.464962 3.21146 0.70759 
1 0.720605 2.21183 0.952745 
1 1.13472 2.98199 1.58175 
1 1.68403 1.98769 1.28444 
1 1.47332 2.86016 0.537713 
1 2.14876 3.60597 -1.88665 
1 2.08617 2.32531 -0.126632 
1 2.27598 3.5979 0.48125 
2 1.91868 3.22689 1.22294 
1 3.85229 2.60887 -3.41784 
1 2.4486 3.14694 -2.80812 
1 2.47238 2.61578 0.921526 
1 0.267362 3.5751 1.71673 
1 -3.61305 3.35482 -0.645583 
1 -3.67602 3.32007 1.5946 
1 3.60181 3.06856 -2.37687 
1 2.84532 3.07414 -0.315514 
1 2.80084 2.56442 -3.58503 
1 3.58798 2.32177 -0.736718 
1 3.76575 2.17253 -1.80643 
1 3.46527 3.55762 -3.3034 
1 3.08814 2.95902 -1.41865 
1 3.11387 2.13049 -2.63543 
2 2.68489 2.31954 -0.822644 
1 2.71645 3.5734 1.49818 
1 3.50663 2.30488 1.21838 
1 3.28789 3.25977 0.658615 
1 3.14402 2.23327 0.219542 
1 0.815945 -3.0853 1.85571 
1 -1.83494 0.531796 1.91334 
1 1.78881 3.73714 1.95773 
1 -0.901743 -2.00016 2.09397 
1 -0.511177 -2.25658 3.02756 
1 -1.04267 -3.0576 2.15893 
1 -2.26898 -0.431152 2.19196 
1 -2.46788 -2.16672 2.44914 
1 -1.46697 -0.763806 2.98132 
2 -1.62095 -2.44054 2.40307 
1 -1.80697 -1.40901 2.06915 
1 -1.63626 -1.87557 3.07266 
1 -2.44474 -1.17019 3.10967 
1 -2.96405 -1.27938 2.2049 
1 -2.1581 -3.16891 2.30075 
1 -3.42624 -2.22883 1.97075 
1 -1.3913 -2.90302 3.14292 
2 -1.52384 -3.6513 2.61558 
2 -1.43126 -0.144521 2.32226 
2 -0.946036 -1.44045 2.75224 
1 -0.91884 -0.831557 2.08959 
1 -2.89419 -2.04339 3.52366 
2 -0.721948 -3.41104 2.95733 
1 -2.98739 -2.95272 2.95575 
2 -2.21467 -2.60133 3.15985 
1 -0.0827712 -1.2684 2.67815 
1 -2.20933 -3.47824 3.42209 
1 -2.88779 -0.17532 3.07186 
1 -0.151226 -0.198384 2.37824 
1 -0.0327879 -3.14933 2.53899 
1 0.21201 -2.18405 2.17378 
1 -0.557709 -0.257177 3.35578 
1 -3.17804 -3.48943 2.0949 
1 -0.676191 -1.27895 3.57647 
1 -3.58501 -1.25614 3.23825 
1 0.490066 -1.98975 3.30478 
1 0.467675 -0.664629 3.38609 
1 0.608725 -0.782391 1.96349 
1 0.672831 -3.09045 3.35707 
2 1.02663 -1.3022 3.56847 
1 1.05756 -1.34806 2.69278 
1 1.17119 -2.43292 2.60942 
2 -2.17379 -0.486267 3.60355 
1 1.71627 -2.84929 3.43356 
1 1.79924 -0.133477 3.05727 
1 1.68381 -0.628213 2.11214 
1 1.93461 -1.21583 3.24122 
2 -3.4784 0.517722 3.25293 
1 -3.5422 1.38255 2.94818 
1 -3.3065 0.371673 2.28412 
1 -2.63455 0.913778 3.1291 
1 -2.42263 1.81086 3.64667 
1 -2.70509 1.2055 2.07594 
2 -2.45836 0.369346 2.50184 
1 -1.84646 0.197595 3.08174 
1 -1.66372 1.22978 2.74024 
1 -0.915718 0.480116 2.67935 
1 -0.637821 1.50594 3.04544 
1 -0.822819 1.23443 1.94878 
1 0.106225 0.690393 2.94529 
1 0.102557 1.55493 2.3458 
1 0.860436 -0.00109567 2.63505 
1 1.11414 0.78447 3.41607 
1 1.04748 1.01103 2.33902 
2 1.60499 0.309096 2.27361 
1 1.8519 1.77115 2.39802 
1 2.20765 1.60724 3.59068 
1 2.01025 -1.82031 2.34221 
1 2.116 -2.92142 2.42853 
1 2.09447 0.84636 2.82134 
2 2.21 -2.01418 3.49139 
1 2.44419 0.144186 2.13097 
1 0.938229 1.82206 3.11381 
1 3.17658 0.648031 -3.73981 
2 3.6528 -1.54618 2.41309 
1 2.85853 -1.65631 2.95458 
1 2.9476 -1.29064 1.95522 
1 2.71284 -0.622527 2.77956 
1 3.71206 -0.621553 2.40346 
2 3.70413 -2.92756 2.41389 
1 3.03123 -3.47568 2.37182 
2 3.0417 -1.04394 3.52801 
1 3.52639 -0.268087 3.39127 
1 3.59038 -3.29421 3.33447 
1 2.99352 -2.35531 2.14815 
1 3.70139 -2.25616 2.95895 
1 2.75688 -2.67941 3.26923 
1 3.57319 1.2758 1.92689 
1 2.888 1.57963 2.74806 
2 2.67388 1.0029 2.12212 
2 2.61255 0.189841 3.18534 
1 3.22895 0.549652 2.68323 
2 -3.30574 1.90206 -3.83318 
1 2.11511 2.72343 1.91094 
1 0.753221 -3.85483 2.62258 
1 1.80679 -3.87942 3.0191 
1 -3.01371 3.44227 3.67562 
1 -3.32329 2.19161 2.14955 
1 -2.9418 2.54824 3.13455 
2 -2.67973 3.62425 2.85415 
1 -2.62523 3.02626 2.18074 
1 -2.23638 2.08394 2.51811 
1 -2.04002 2.95916 3.5571 
1 -1.62966 2.9833 2.57843 
1 -1.42264 2.17988 3.24249 
1 -1.11434 3.48947 3.37868 
1 -0.876826 2.26425 2.31843 
2 -0.743349 2.76321 3.04792 
1 -0.587031 3.35205 2.37871 
1 -0.0510398 3.45805 3.29059 
1 0.0822453 2.47823 2.8682 
2 0.384686 2.21429 3.70515 
2 0.579506 2.87155 2.25639 
1 0.809431 2.9601 3.54674 
1 0.904494 2.05456 1.99553 
1 1.37713 2.70587 2.67584 
1 1.75049 2.5795 3.71533 
1 2.41657 2.54089 2.89778 
1 3.92492 3.2994 2.70877 
2 2.53043 3.35631 2.38438 
1 2.97902 3.38242 3.21071 
1 3.49723 2.37731 3.07798 
1 3.13998 2.72675 2.14612 
