ITEM: TIMESTEP
994
ITEM: NUMBER OF ATOMS
500
ITEM: BOX BOUNDS xy xz yz pp pp pp
-3.7345 3.86147 0.126973
-3.7345 3.7345 0
-3.7345 3.7345 0
ITEM: ATOMS type xu yu zu 
1 0.0433515 -2.25872 -2.29414 
1 -0.943484 -1.80573 -1.83167 
1 -0.582829 -1.61374 -2.86148 
1 -1.25631 -2.54988 -2.52865 
2 -1.67233 -1.90777 -2.97908 
1 -3.28821 -1.117 -2.53614 
1 -1.16491 -2.3644 -0.879548 
1 -3.33648 -2.23363 -2.86313 
1 -0.645384 -2.8632 -1.64262 
1 -1.52979 -1.21297 -2.5002 
1 -2.18676 -2.09568 -2.25104 
1 -2.8408 -1.37946 -0.951667 
1 -2.51567 -1.57026 -3.07447 
1 -2.98641 -0.743483 -3.52286 
1 -2.27696 -3.13284 -2.60715 
1 -0.127774 -2.40932 -0.717112 
1 -3.16269 -1.95672 -1.82468 
1 -2.43136 -1.09512 -1.9039 
1 -2.60325 -2.44319 -0.982366 
1 -1.80442 -2.82057 -1.61062 
1 -0.587949 -0.700512 -2.27105 
1 -0.826264 -1.31913 -0.834519 
1 -2.23891 -0.503593 -2.81156 
2 -1.61773 -1.50688 -0.44829 
1 -1.86352 -1.70438 -1.26686 
1 -2.96013 -3.06366 -1.74738 
2 -0.499444 -2.5018 -2.96092 
1 -1.3306 -0.781572 -1.57248 
1 -3.49424 -3.44375 -2.57062 
2 -0.987896 -0.855004 -3.11272 
1 -2.00511 -0.706042 -0.812976 
1 -0.414454 -3.2805 -2.61282 
1 0.00366874 -1.58811 -1.4368 
1 -0.796137 -0.258625 -0.738159 
2 -0.432052 -0.736752 -1.40034 
1 -2.97519 -0.34085 -1.27259 
1 -1.41076 -3.30909 -3.26793 
2 -0.462399 -0.839853 -0.167458 
2 0.109321 -1.24215 -2.44904 
1 0.185024 -0.653033 -0.759888 
2 -1.42412 -0.319351 -2.42418 
2 -2.778 -0.641321 -0.422305 
1 -1.07975 -2.22006 -3.55002 
1 0.0673838 -1.52747 -0.219758 
2 -3.39849 -1.506 -3.37019 
2 -3.22585 -1.39026 -0.183132 
1 -1.67957 -1.21469 -3.55348 
1 -1.80833 -3.22086 -0.633669 
1 -3.39796 -3.08674 -0.591532 
1 -0.317558 -3.44787 -0.674476 
2 -2.85807 -0.389982 -2.18248 
1 -1.38655 -3.59837 -2.18574 
1 -1.93665 -2.28056 -0.151591 
1 -2.98697 -3.06956 -3.4258 
1 -1.43709 -0.180316 -3.48254 
2 -3.59452 -2.52599 -3.70944 
1 0.21338 -3.45884 -1.74003 
2 -2.56133 -2.92731 -0.227995 
1 -0.142905 -0.647906 -3.19783 
2 -3.47545 -2.52553 -1.24826 
1 -2.08489 -2.50297 -3.45576 
1 -2.09339 -0.0831705 -1.81684 
2 0.252433 -2.55291 -1.49384 
1 0.321373 -2.55915 -3.26281 
1 0.368417 -3.65751 -3.26351 
1 0.365554 -0.684544 -1.81192 
2 0.445788 -3.05564 -2.55272 
1 0.478332 -1.52166 -3.20482 
1 0.744217 -2.99847 -0.878335 
1 0.873444 -2.22288 -0.0977615 
1 0.880129 -1.56174 -2.1375 
1 0.931827 -1.96998 -1.1413 
2 -3.10727 -3.69965 -1.13792 
2 0.933361 -2.16991 -2.74917 
1 0.799094 -0.634823 -2.73382 
1 0.987486 -2.67137 -1.97914 
1 1.15472 -0.540705 -1.13635 
1 1.13042 -1.18266 -0.266596 
1 1.19963 -0.0350913 -0.175686 
2 -0.208893 -1.95611 -3.63232 
1 1.29368 -2.9088 -3.04069 
2 1.31429 -1.3032 -2.94337 
1 -0.464394 -3.08498 -3.72388 
2 1.24216 -0.780693 -1.97635 
1 1.4222 -1.9569 -3.52029 
2 1.48418 -2.73852 -0.430216 
1 -3.09184 -2.21662 -0.0680144 
1 1.0406 -3.69648 -2.38604 
1 1.44186 -0.613729 -3.53568 
1 1.5829 -3.63395 -0.3886 
2 1.63392 -2.15644 -1.66811 
1 1.82404 -1.85716 -2.48679 
1 1.78254 -2.91758 -1.23501 
1 1.82173 -1.29453 -1.56082 
1 1.87809 -1.92969 -0.680253 
1 -2.4897 -1.18312 1.24916 
1 -1.78236 -2.34991 1.54376 
1 -0.803496 -2.15711 1.05973 
1 -1.6146 -1.5641 0.771375 
2 0.0899675 -2.14681 1.25172 
2 -2.02092 -0.80205 0.609939 
1 -1.31308 -0.620427 1.12479 
1 -3.53103 -2.27476 0.903985 
2 -1.07125 -1.4133 1.44756 
1 -1.18815 -3.16658 1.06616 
2 -2.64674 -1.97009 1.60289 
2 -1.56602 -2.45135 0.653204 
1 -2.45487 -2.1623 0.744313 
1 -3.05597 -0.666769 0.450886 
1 -0.333491 -3.48034 0.541677 
2 -3.07461 -1.5367 0.702377 
1 -0.514716 -1.15878 0.655806 
1 -2.7718 -2.84559 1.42492 
1 -3.17346 -0.388096 1.52059 
1 -0.217333 -2.91666 1.48816 
1 -0.167204 -1.38878 1.59641 
1 -0.592009 -0.134095 0.33568 
2 -0.70034 -3.66132 1.60479 
1 -0.0371528 -0.337343 1.24824 
1 -1.34439 -0.825579 0.0289863 
1 -2.06129 -3.19713 0.485121 
1 -0.942003 -1.87345 0.032085 
1 -2.25809 -0.142228 1.12512 
2 -1.97886 -3.19006 1.41514 
1 -3.10666 -3.16219 0.43674 
1 -1.04695 -2.90736 0.0413642 
1 -0.0697219 -2.45009 0.385532 
1 -3.63409 -1.3396 1.3929 
1 0.393477 -0.595627 0.291804 
2 0.382389 -3.34504 1.0356 
1 0.650185 -3.22766 0.172293 
1 0.503786 -1.57303 0.736839 
1 0.829273 -2.5492 0.976208 
1 1.06857 -1.7698 1.6777 
1 1.14676 -0.835848 1.09255 
2 -3.31738 -3.55423 1.18556 
2 1.27989 -0.0938497 0.694334 
1 -2.37105 -1.33215 0.0163963 
1 -2.19948 -0.154841 0.0606654 
1 1.66995 -2.86976 0.43725 
1 1.6201 -1.79302 0.528888 
2 1.95231 -3.3205 1.18361 
1 1.89542 -0.718161 0.382457 
1 -3.23701 1.07681 -3.48418 
1 -3.56117 0.560991 -1.40273 
1 -3.20012 1.53046 -0.755589 
1 -3.13358 0.142712 -0.305496 
1 -2.98849 1.37913 -1.81371 
1 -2.82065 0.469535 -2.40116 
1 -2.47947 0.277745 -3.48482 
1 -2.59218 0.712403 -0.978146 
1 -2.34468 1.39495 -2.77748 
1 -2.00126 0.97814 -1.78151 
1 -1.73137 1.03695 -3.63769 
1 -1.99861 0.857137 -0.0716187 
2 -1.83138 1.19961 -0.872239 
1 -1.74942 0.486263 -2.6916 
1 -1.62254 0.340261 -0.925622 
2 -1.35918 0.0530857 -0.135162 
2 -1.22574 0.98452 -2.18293 
1 -1.27532 1.80188 -0.481663 
1 -0.893448 1.37336 -2.87662 
1 -1.08296 1.28811 -1.36246 
1 -1.05951 0.213658 -1.8051 
1 -3.48871 0.102965 -3.17663 
1 -0.891626 0.808912 -0.228925 
2 -0.751286 0.551399 -1.05142 
1 -0.740916 0.209691 -2.80791 
2 -0.619303 1.58744 0.119753 
1 -0.350518 0.976096 -2.05197 
2 -0.182576 0.874982 -2.97388 
1 -0.090368 1.13702 -0.975531 
1 -0.0616628 0.161931 -1.42274 
1 0.226944 0.287178 -3.54841 
1 0.104506 0.332572 -0.310039 
1 0.244173 0.237082 -2.48476 
2 0.710066 1.08983 -2.8994 
1 0.702825 1.0932 -1.93308 
1 0.875137 1.55844 -0.752811 
1 0.866963 0.522257 -1.01736 
1 1.15779 0.327146 -3.06738 
1 1.54666 1.20332 -2.59804 
1 1.1474 0.0882059 -1.98939 
2 1.67051 0.156927 -0.928904 
1 1.7321 0.946913 -0.461652 
1 1.74835 0.830685 -1.54656 
1 2.05477 0.30862 -2.50321 
1 -3.40963 0.618036 1.23693 
1 -3.14828 1.62629 1.1947 
1 -3.04874 1.06402 0.219298 
2 -2.89103 0.228233 0.585862 
2 -2.68529 0.398159 1.63937 
1 -2.3246 0.91499 1.00419 
1 -1.78935 1.58323 1.68317 
1 -1.45433 0.346753 0.681358 
2 -1.3208 0.932506 1.29968 
1 -1.36231 1.42881 0.567992 
1 -0.87926 0.200352 1.63362 
1 -0.500091 0.813624 0.797413 
1 -0.0419284 1.58122 1.30199 
1 0.13335 0.629365 1.7694 
1 0.248089 1.3587 0.165222 
1 0.543068 0.414103 0.653026 
1 0.942233 1.19957 1.24841 
2 0.91573 0.82181 -0.108803 
1 1.08219 0.151721 1.56317 
1 1.31877 1.64511 0.26089 
1 1.62836 0.684376 0.566007 
1 1.93309 -2.47107 1.4329 
1 1.88627 -0.747191 -2.56281 
1 1.89037 0.946465 1.66868 
1 1.99837 -2.8641 -2.25606 
1 2.0286 -1.34792 1.39174 
1 2.07715 0.552698 -3.59704 
1 2.05509 -0.664639 -0.642103 
2 2.06267 0.0478666 -0.043445 
1 2.05186 -0.0656371 1.17785 
1 2.11107 -0.239872 -1.6011 
2 2.45808 1.13593 -1.15841 
1 3.79193 -0.745482 -0.502802 
2 2.37063 -2.27694 0.405062 
1 2.32237 -2.44874 -3.21413 
1 2.3623 -2.79529 -0.323148 
1 2.39146 -1.38977 -3.28125 
1 2.45156 1.51448 -1.97004 
1 2.37374 1.5448 0.640798 
1 -2.30462 1.83783 -0.225446 
1 -1.52963 1.8432 -2.15997 
2 -0.637678 1.79423 -2.04166 
1 0.114229 1.72573 -2.64856 
2 1.98732 3.89818 -2.74467 
1 1.31129 3.82748 0.982444 
1 -0.731982 0.729443 3.74378 
1 0.162629 1.36315 3.8139 
2 -1.06399 1.61077 3.79105 
1 2.39256 -3.46806 -3.47164 
1 -3.701 -1.09392 -1.56251 
1 3.76931 -0.176441 -2.15201 
2 2.64727 -3.04086 -1.66181 
1 3.53984 -3.58463 -1.54784 
1 3.16732 -2.72473 -1.01082 
1 3.2935 -2.84773 -3.14738 
1 3.67289 -1.82494 -0.755926 
1 3.20323 -0.268589 -1.22192 
1 3.17727 -3.42643 -0.0685308 
1 2.99771 0.0828312 -2.8245 
2 2.77231 -2.51731 -2.46899 
1 2.87589 -0.413984 -0.0450788 
2 3.36092 -1.87917 -1.58715 
1 2.81361 -1.27896 -1.08455 
1 3.28877 -1.87792 -3.56992 
2 2.76994 -2.04695 -0.646005 
1 2.56628 -3.60873 -0.994219 
1 3.39888 -0.8697 -3.1704 
1 3.502 -2.64404 -2.01655 
1 2.86053 -3.46546 -2.4085 
1 3.20725 -1.74041 -2.48792 
1 2.86841 -0.799047 -2.13453 
1 2.51517 -0.406362 -3.63601 
1 2.52509 -2.15215 -1.65081 
2 2.8319 -0.037719 0.79457 
2 2.63497 -3.01953 1.70709 
1 2.68077 -3.006 0.808475 
1 3.2671 -0.184952 1.55611 
2 3.53014 -3.00881 0.620487 
2 3.6672 -0.63889 0.900817 
2 2.4775 -0.617095 1.69692 
1 3.5013 -3.05982 1.50193 
1 2.83043 -0.900009 0.917167 
1 2.56802 -1.4928 0.0172391 
1 3.24675 -2.36195 0.0738193 
1 2.89797 -1.98373 1.08019 
1 3.58172 -1.37797 0.355954 
1 3.3359 1.66276 -3.59986 
2 3.59192 1.60662 -0.205209 
1 2.51725 0.353014 -0.771497 
1 3.28478 1.41397 -1.27298 
1 2.70153 1.4938 -0.396464 
1 2.85553 0.548833 -1.80833 
1 3.48806 0.756416 -0.422312 
1 2.6684 1.13268 -2.92248 
1 3.64719 0.944251 -2.4627 
1 3.62741 0.11615 0.462219 
1 2.66391 1.78889 1.67962 
1 2.85781 0.738866 1.28898 
1 2.65642 0.612145 0.24615 
1 3.45265 1.29326 0.60928 
1 -3.3131 1.85546 -2.76555 
1 1.92122 1.85904 -1.09113 
1 2.09075 2.05019 -2.89634 
2 -3.21592 3.24764 -2.95007 
1 -3.14292 3.03066 -1.56736 
2 -2.9731 2.14634 -1.34021 
1 -2.61212 2.61824 -3.12222 
1 -2.82839 2.64824 -0.627882 
1 -2.5351 3.37919 -2.37208 
1 -2.54986 2.31671 -2.11645 
1 -2.51268 3.65553 -0.377233 
2 -2.31207 2.79997 -1.37064 
1 -2.1334 3.65879 -1.40102 
1 -2.09278 1.94417 -1.24862 
1 -1.62968 2.11793 -3.18573 
1 -1.63703 3.19221 -2.94551 
1 -1.77288 2.81596 -0.657878 
1 -1.61801 2.87967 -1.91677 
2 -1.20541 2.78047 -3.57917 
1 -1.02708 3.45397 -1.10801 
1 -0.880259 2.35562 -1.37772 
1 -0.76232 2.43794 -2.63408 
2 -2.34413 3.65584 -3.23675 
2 -0.911368 2.68526 -0.542776 
1 -0.556194 3.33423 -3.19545 
1 -0.430691 3.23741 -2.03541 
1 -0.485504 2.29644 -3.67133 
1 -0.293148 3.11443 -0.0847856 
1 -0.00751634 2.98132 -1.09844 
1 0.143898 1.99588 -1.59473 
1 -0.243087 2.08625 -0.531819 
2 0.268212 3.50335 -2.49503 
1 0.6165 2.91138 -1.97297 
1 0.305581 2.73169 -2.99568 
1 0.703045 3.41301 -0.434706 
1 1.0525 2.56796 -1.07121 
1 1.03278 1.89031 -3.24845 
1 1.27631 2.0302 -1.97948 
1 1.24044 3.60333 -1.33508 
1 0.670778 2.42382 -0.0882789 
2 1.49453 2.92151 -1.82086 
1 1.53459 3.59676 -3.45258 
1 1.38378 2.81007 -2.7264 
2 1.4448 2.93536 -0.349251 
1 2.26432 2.53282 -1.95425 
1 2.04147 2.96118 -1.01069 
1 -3.19528 3.27205 0.357651 
1 -3.26533 2.14616 0.239437 
1 -2.93541 2.67754 1.19809 
1 -2.38539 3.5994 1.25164 
2 -2.54295 2.05507 1.68716 
1 -2.1634 2.99063 0.399337 
1 -2.23513 1.98223 0.798395 
1 -1.86521 2.65776 1.51832 
2 -1.5674 3.51483 0.869076 
1 -1.42787 3.58284 1.74353 
1 -1.24158 2.49349 0.295959 
1 -0.729955 3.16925 1.00864 
1 -1.25772 3.5311 0.0364347 
1 -0.969645 2.12181 1.27531 
1 -0.234803 2.27718 0.530751 
1 -0.0438339 2.57096 1.6932 
1 0.457752 3.21096 0.707494 
1 0.715061 2.21149 0.952571 
1 1.12808 2.98215 1.58145 
1 1.67855 1.98729 1.28409 
1 1.46687 2.86032 0.537306 
1 2.14026 3.60511 -1.88671 
1 2.07954 2.32451 -0.126878 
1 2.26913 3.59818 0.480953 
2 1.9119 3.22701 1.22263 
1 3.84491 2.60926 -3.41671 
1 2.44285 3.14669 -2.80752 
1 2.46608 2.61605 0.921275 
1 0.260802 3.57573 1.71636 
1 -3.61965 3.35412 -0.644513 
1 -3.68289 3.31878 1.59426 
1 3.59574 3.06916 -2.37626 
1 2.83794 3.07346 -0.315899 
1 2.7935 2.56375 -3.58492 
1 3.58053 2.32152 -0.737183 
1 3.76014 2.17262 -1.80676 
1 3.45819 3.5581 -3.30277 
1 3.08056 2.95849 -1.41922 
1 3.10791 2.13102 -2.63551 
2 2.67717 2.31958 -0.823853 
1 2.70973 3.57334 1.49797 
1 3.5009 2.30449 1.21827 
1 3.28108 3.26024 0.658134 
1 3.13833 2.23357 0.2198 
1 0.816672 -3.08453 1.85508 
1 -1.83926 0.531457 1.91325 
1 1.78221 3.73748 1.95746 
1 -0.90309 -1.99888 2.09341 
1 -0.512512 -2.25668 3.02681 
1 -1.04247 -3.0569 2.15857 
1 -2.27273 -0.431048 2.19237 
1 -2.46804 -2.16624 2.44803 
1 -1.46784 -0.763274 2.98061 
2 -1.62127 -2.44047 2.40254 
1 -1.80835 -1.40772 2.06721 
1 -1.63744 -1.87499 3.07166 
1 -2.44606 -1.16915 3.10935 
1 -2.96666 -1.27979 2.20543 
1 -2.15815 -3.16874 2.30023 
1 -3.42675 -2.22975 1.97068 
1 -1.39206 -2.90272 3.14245 
2 -1.52376 -3.65119 2.61513 
2 -1.43422 -0.145487 2.32051 
2 -0.946775 -1.44 2.75241 
1 -0.919248 -0.831981 2.08879 
1 -2.89553 -2.04293 3.52244 
2 -0.722052 -3.4101 2.95712 
1 -2.98783 -2.95216 2.9542 
2 -2.21532 -2.60119 3.15864 
1 -0.0837993 -1.26819 2.6781 
1 -2.20994 -3.47828 3.42136 
1 -2.89199 -0.175428 3.07198 
1 -0.15416 -0.19749 2.37921 
1 -0.0326761 -3.14989 2.53818 
1 0.210759 -2.18436 2.17403 
1 -0.559641 -0.256656 3.35691 
1 -3.17796 -3.49027 2.09417 
1 -0.677227 -1.27846 3.57664 
1 -3.58775 -1.25659 3.23747 
1 0.488706 -1.9898 3.30386 
1 0.465484 -0.665277 3.38776 
1 0.606361 -0.780752 1.96441 
1 0.671653 -3.0898 3.35725 
2 1.0264 -1.30207 3.56738 
1 1.05624 -1.34764 2.69212 
1 1.17056 -2.4326 2.60971 
2 -2.17764 -0.486189 3.6056 
1 1.71558 -2.84991 3.43392 
1 1.79641 -0.134546 3.05693 
1 1.68107 -0.627794 2.11142 
1 1.93279 -1.217 3.24243 
2 -3.48295 0.518388 3.25203 
1 -3.54639 1.38487 2.94879 
1 -3.31154 0.370935 2.28417 
1 -2.63959 0.913602 3.1292 
1 -2.42792 1.81081 3.64651 
1 -2.71024 1.20496 2.07593 
2 -2.46329 0.369732 2.50159 
1 -1.85151 0.196642 3.08131 
1 -1.66884 1.22921 2.73996 
1 -0.920351 0.479286 2.68026 
1 -0.643113 1.50527 3.04608 
1 -0.827867 1.23444 1.95012 
1 0.101935 0.690891 2.94624 
1 0.0976514 1.55528 2.34689 
1 0.857107 -0.000349113 2.63694 
1 1.11036 0.785846 3.4169 
1 1.04292 1.01115 2.33951 
2 1.60134 0.308949 2.2738 
1 1.84628 1.77123 2.39845 
1 2.2015 1.60688 3.59064 
1 2.00842 -1.81915 2.34102 
1 2.1156 -2.9203 2.42879 
1 2.09013 0.846193 2.82147 
2 2.21036 -2.01431 3.49298 
1 2.44107 0.144508 2.13139 
1 0.932908 1.8227 3.11431 
1 3.17272 0.646918 -3.73855 
2 3.64983 -1.5475 2.41195 
1 2.85671 -1.65706 2.95344 
1 2.94468 -1.29084 1.95416 
1 2.70938 -0.623419 2.77874 
1 3.70833 -0.622806 2.40251 
2 3.70414 -2.92838 2.4135 
1 3.03055 -3.47553 2.37245 
2 3.03884 -1.04479 3.52742 
1 3.52284 -0.268354 3.39011 
1 3.59087 -3.29426 3.33466 
1 2.99312 -2.35519 2.14683 
1 3.69973 -2.25684 2.95865 
1 2.75626 -2.68027 3.27032 
1 3.56817 1.27625 1.92721 
1 2.88263 1.58065 2.74804 
2 2.66945 1.00333 2.12228 
2 2.60917 0.189379 3.18494 
1 3.22484 0.551637 2.68423 
2 -3.31092 1.90236 -3.82997 
1 2.10843 2.72342 1.91063 
1 0.754519 -3.85384 2.62233 
1 1.80781 -3.87908 3.01903 
1 -3.02057 3.44178 3.67575 
1 -3.32907 2.19228 2.14947 
1 -2.9489 2.54744 3.13485 
2 -2.68817 3.62497 2.85413 
1 -2.63034 3.02649 2.18176 
1 -2.24238 2.08351 2.51887 
1 -2.04657 2.95855 3.55547 
1 -1.63397 2.98219 2.57763 
1 -1.4278 2.17932 3.24235 
1 -1.12161 3.49019 3.37851 
1 -0.880344 2.26404 2.3192 
2 -0.749035 2.7645 3.0479 
1 -0.593524 3.3529 2.37823 
1 -0.0583821 3.45893 3.29043 
1 0.0767581 2.47896 2.86842 
2 0.379611 2.21474 3.70563 
2 0.573496 2.8722 2.25639 
1 0.80258 2.96137 3.54591 
1 0.899076 2.05462 1.99536 
1 1.37068 2.7065 2.67557 
1 1.74294 2.57879 3.71531 
1 2.40971 2.54148 2.89791 
1 3.91788 3.29924 2.7086 
2 2.52372 3.35553 2.38453 
1 2.97224 3.38253 3.21162 
1 3.49028 2.37836 3.07881 
1 3.13324 2.72577 2.1461 
