ITEM: TIMESTEP
1107
ITEM: NUMBER OF ATOMS
500
ITEM: BOX BOUNDS xy xz yz pp pp pp
-3.7345 3.88388 0.14938
-3.7345 3.7345 0
-3.7345 3.7345 0
ITEM: ATOMS type xu yu zu 
1 0.0513612 -2.26026 -2.29416 
1 -0.930076 -1.80517 -1.8325 
1 -0.586175 -1.61935 -2.86176 
1 -1.25374 -2.55074 -2.52567 
2 -1.66772 -1.90859 -2.97766 
1 -3.28187 -1.11408 -2.53474 
1 -1.16027 -2.36642 -0.879573 
1 -3.33481 -2.2315 -2.86327 
1 -0.639552 -2.86151 -1.64355 
1 -1.52456 -1.21482 -2.49753 
1 -2.18572 -2.09922 -2.25144 
1 -2.83212 -1.37963 -0.952632 
1 -2.51153 -1.56956 -3.07247 
1 -2.97719 -0.739805 -3.52163 
1 -2.27206 -3.13778 -2.60507 
1 -0.123888 -2.40788 -0.71415 
1 -3.1603 -1.95647 -1.82483 
1 -2.42482 -1.09594 -1.90448 
1 -2.59918 -2.4436 -0.983491 
1 -1.80039 -2.82197 -1.61022 
1 -0.573779 -0.70988 -2.27571 
1 -0.811451 -1.32331 -0.835863 
1 -2.22889 -0.502309 -2.81076 
2 -1.60668 -1.5093 -0.452097 
1 -1.85485 -1.70553 -1.27084 
1 -2.95934 -3.06257 -1.74977 
2 -0.497156 -2.50529 -2.9571 
1 -1.31545 -0.783549 -1.57289 
1 -3.49808 -3.44482 -2.56914 
2 -0.981406 -0.858607 -3.11226 
1 -1.99495 -0.70628 -0.81722 
1 -0.412884 -3.28455 -2.61202 
1 0.0182146 -1.59381 -1.44026 
1 -0.781953 -0.261363 -0.741624 
2 -0.418209 -0.742606 -1.40436 
1 -2.96483 -0.339542 -1.27356 
1 -1.40765 -3.30986 -3.26638 
2 -0.450681 -0.840886 -0.169387 
2 0.0883563 -1.32796 -2.36895 
1 0.197258 -0.65968 -0.763335 
2 -1.41112 -0.321629 -2.42466 
2 -2.767 -0.641591 -0.424059 
1 -1.07806 -2.22622 -3.54881 
1 0.0781587 -1.52881 -0.215189 
2 -3.39015 -1.50174 -3.36851 
2 -3.21509 -1.39061 -0.182827 
1 -1.67607 -1.21525 -3.55104 
1 -1.80624 -3.22159 -0.633786 
1 -3.39485 -3.08558 -0.591473 
1 -0.319588 -3.4463 -0.677089 
2 -2.84712 -0.388513 -2.18168 
1 -1.38237 -3.60104 -2.18342 
1 -1.93163 -2.28092 -0.151952 
1 -2.98495 -3.07133 -3.41979 
1 -1.42631 -0.182629 -3.48106 
2 -3.59008 -2.52997 -3.71084 
1 0.213839 -3.46418 -1.73865 
2 -2.55802 -2.92779 -0.227635 
1 -0.136642 -0.64897 -3.20728 
2 -3.47303 -2.52641 -1.24991 
1 -2.08348 -2.50428 -3.45133 
1 -2.07948 -0.085232 -1.81634 
2 0.253677 -2.5548 -1.49163 
1 0.322423 -2.56468 -3.26098 
1 0.369066 -3.66129 -3.2641 
1 0.378522 -0.692295 -1.81736 
2 0.446777 -3.05947 -2.55023 
1 0.472461 -1.52954 -3.16933 
1 0.74565 -3.00045 -0.874391 
1 0.879454 -2.22368 -0.0910277 
1 0.907834 -1.56844 -2.12841 
1 0.942201 -1.97766 -1.13524 
2 -3.10835 -3.6986 -1.14067 
2 0.934256 -2.17771 -2.7403 
1 0.80872 -0.631525 -2.73733 
1 0.988699 -2.68005 -1.97339 
1 1.16509 -0.537584 -1.13999 
1 1.14055 -1.18383 -0.271233 
1 1.21093 -0.0357516 -0.178798 
2 -0.208337 -1.95622 -3.62413 
1 1.29631 -2.90971 -3.04147 
2 1.32034 -1.30466 -2.93252 
1 -0.462337 -3.08892 -3.72437 
2 1.25665 -0.778723 -1.98044 
1 1.42308 -1.95192 -3.5142 
2 1.48857 -2.73481 -0.430403 
1 -3.08525 -2.21737 -0.0671515 
1 1.04255 -3.69957 -2.38737 
1 1.45046 -0.616098 -3.53809 
1 1.58408 -3.63064 -0.389492 
2 1.63443 -2.15123 -1.68076 
1 1.85539 -1.84491 -2.48717 
1 1.78583 -2.90914 -1.23483 
1 1.83397 -1.29111 -1.55795 
1 1.88768 -1.92539 -0.677124 
1 -2.47798 -1.18267 1.24926 
1 -1.77905 -2.34897 1.54499 
1 -0.800337 -2.15629 1.06167 
1 -1.60714 -1.56437 0.767717 
2 0.0922158 -2.1464 1.25537 
2 -2.01059 -0.801786 0.607538 
1 -1.30202 -0.62258 1.1227 
1 -3.52429 -2.27364 0.904071 
2 -1.07595 -1.41696 1.45506 
1 -1.18712 -3.1663 1.06794 
2 -2.64433 -1.96803 1.60441 
2 -1.56243 -2.45163 0.654072 
1 -2.44885 -2.16109 0.745168 
1 -3.04443 -0.666581 0.449867 
1 -0.332527 -3.47868 0.544167 
2 -3.0668 -1.53467 0.704583 
1 -0.505018 -1.16002 0.653419 
1 -2.76861 -2.84331 1.42663 
1 -3.1622 -0.387891 1.51881 
1 -0.217134 -2.91594 1.49213 
1 -0.169186 -1.38786 1.59879 
1 -0.578892 -0.13528 0.33361 
2 -0.699993 -3.66315 1.60493 
1 -0.022698 -0.339283 1.2459 
1 -1.33329 -0.826735 0.0251932 
1 -2.05971 -3.19603 0.486423 
1 -0.933658 -1.87562 0.0311024 
1 -2.24629 -0.142029 1.12276 
2 -1.97695 -3.18994 1.41822 
1 -3.10506 -3.16443 0.437228 
1 -1.04542 -2.90861 0.0423421 
1 -0.0647487 -2.44939 0.389927 
1 -3.62707 -1.33772 1.39285 
1 0.406698 -0.597223 0.289716 
2 0.382458 -3.34271 1.03896 
1 0.651789 -3.22805 0.176131 
1 0.5104 -1.57199 0.744683 
1 0.833538 -2.54906 0.982288 
1 1.07749 -1.76994 1.68556 
1 1.159 -0.836457 1.0936 
2 -3.31667 -3.54844 1.18991 
2 1.29028 -0.0954852 0.691433 
1 -2.36028 -1.33134 0.0133869 
1 -2.18695 -0.15514 0.0573539 
1 1.6716 -2.86893 0.437969 
1 1.62666 -1.79095 0.53077 
2 1.95208 -3.31923 1.18475 
1 1.90465 -0.719244 0.381019 
1 -3.22043 1.08166 -3.48545 
1 -3.54744 0.565896 -1.40301 
1 -3.18552 1.52765 -0.75744 
1 -3.12227 0.142293 -0.306587 
1 -2.97078 1.38039 -1.81386 
1 -2.80578 0.470396 -2.3999 
1 -2.46535 0.27978 -3.48462 
1 -2.57709 0.708951 -0.978543 
1 -2.3286 1.39493 -2.77671 
1 -1.98597 0.977134 -1.78082 
1 -1.71723 1.03959 -3.63759 
1 -1.98286 0.855996 -0.0730464 
2 -1.81747 1.19977 -0.872661 
1 -1.73439 0.485708 -2.6912 
1 -1.606 0.340753 -0.927814 
2 -1.34492 0.052229 -0.137624 
2 -1.21072 0.982368 -2.18102 
1 -1.25927 1.80193 -0.481573 
1 -0.881601 1.36928 -2.87697 
1 -1.06771 1.28633 -1.36109 
1 -1.04318 0.21001 -1.8066 
1 -3.47533 0.109275 -3.1767 
1 -0.875953 0.80819 -0.231339 
2 -0.733107 0.548788 -1.05377 
1 -0.726373 0.206565 -2.80926 
2 -0.603163 1.58654 0.11948 
1 -0.336152 0.975211 -2.05147 
2 -0.169928 0.874284 -2.97746 
1 -0.0738354 1.13558 -0.978149 
1 -0.0441899 0.157401 -1.42619 
1 0.238535 0.287015 -3.55038 
1 0.118035 0.328419 -0.313975 
1 0.259204 0.241441 -2.48791 
2 0.723571 1.08892 -2.90362 
1 0.718202 1.0959 -1.93645 
1 0.889361 1.56281 -0.755523 
1 0.880335 0.526112 -1.01933 
1 1.17236 0.327555 -3.07124 
1 1.56048 1.20529 -2.60282 
1 1.16029 0.0899459 -1.99209 
2 1.68218 0.159044 -0.930166 
1 1.7442 0.949339 -0.46455 
1 1.76101 0.833343 -1.54878 
1 2.0689 0.312215 -2.5039 
1 -3.39356 0.618061 1.23472 
1 -3.13198 1.62683 1.19226 
1 -3.03359 1.06313 0.217583 
2 -2.87774 0.227836 0.583119 
2 -2.67019 0.398356 1.63921 
1 -2.30953 0.915306 1.00251 
1 -1.77338 1.58332 1.67971 
1 -1.4407 0.345069 0.679407 
2 -1.30644 0.931189 1.29693 
1 -1.34701 1.42841 0.566576 
1 -0.866212 0.198378 1.6305 
1 -0.485914 0.813144 0.796005 
1 -0.0256718 1.58129 1.29966 
1 0.147047 0.628058 1.76709 
1 0.264335 1.35825 0.163626 
1 0.554491 0.413405 0.650592 
1 0.957428 1.19947 1.24482 
2 0.929465 0.820463 -0.110455 
1 1.09505 0.150677 1.5593 
1 1.33566 1.64784 0.258782 
1 1.63891 0.683156 0.561353 
1 1.9377 -2.46897 1.4318 
1 1.89972 -0.742304 -2.56805 
1 1.90572 0.947366 1.66404 
1 1.99963 -2.85694 -2.25636 
1 2.03843 -1.3505 1.39463 
1 2.08972 0.559241 -3.59829 
1 2.06453 -0.661349 -0.642692 
2 2.07322 0.0480706 -0.0420621 
1 2.06397 -0.0651183 1.17424 
1 2.12275 -0.236768 -1.60196 
2 2.47146 1.13551 -1.15883 
1 3.80293 -0.745847 -0.502294 
2 2.37559 -2.27624 0.408561 
1 2.32609 -2.44627 -3.22001 
1 2.36651 -2.79301 -0.32068 
1 2.40296 -1.38701 -3.29206 
1 2.46472 1.5156 -1.97122 
1 2.38821 1.54395 0.641476 
1 -2.29 1.83545 -0.227835 
1 -1.51316 1.8418 -2.15957 
2 -0.621726 1.79354 -2.04121 
1 0.127009 1.72262 -2.65221 
2 2.01231 3.90461 -2.74469 
1 1.33301 3.82891 0.986411 
1 -0.719748 0.727218 3.74125 
1 0.177411 1.36173 3.80986 
2 -1.04701 1.61052 3.79063 
1 2.39234 -3.46623 -3.47496 
2 2.48523 -0.617991 1.69551 
1 2.52435 -0.400717 -3.63585 
1 2.52844 0.353228 -0.770448 
1 2.52932 -2.15042 -1.64505 
1 -3.69215 -1.09138 -1.5614 
1 3.78116 -0.171807 -2.15179 
2 2.65132 -3.0391 -1.66368 
1 3.53742 -3.58264 -1.55136 
1 3.17088 -2.72491 -1.00954 
1 3.2954 -2.84672 -3.14835 
1 3.68138 -1.82576 -0.756567 
1 3.21778 -0.264073 -1.22017 
1 3.18095 -3.42574 -0.0661896 
1 3.01149 0.0876449 -2.82683 
2 2.77195 -2.51057 -2.47107 
1 2.88669 -0.415429 -0.044296 
2 3.36576 -1.87522 -1.58736 
1 2.82439 -1.27499 -1.08214 
1 3.30001 -1.8768 -3.56891 
2 2.77814 -2.04452 -0.645796 
1 2.56623 -3.60541 -0.993702 
1 3.40739 -0.866545 -3.16984 
1 3.50092 -2.64117 -2.01746 
1 2.85773 -3.46326 -2.41281 
1 3.20874 -1.73601 -2.48771 
1 2.88012 -0.7921 -2.13392 
2 2.84528 -0.0400893 0.794536 
2 2.63457 -3.01673 1.7072 
1 2.68221 -3.00775 0.80853 
1 3.27777 -0.18922 1.55653 
2 3.53256 -3.00634 0.62285 
2 3.6768 -0.639168 0.897722 
1 3.50085 -3.05512 1.50372 
1 2.83952 -0.902556 0.917786 
1 2.57703 -1.49316 0.0198101 
1 3.25274 -2.36138 0.0742198 
1 2.90614 -1.98668 1.08339 
1 3.59128 -1.37808 0.355016 
1 3.35354 1.66496 -3.59989 
2 3.60546 1.60574 -0.208469 
1 3.29642 1.41847 -1.27081 
1 2.71396 1.49179 -0.39458 
1 2.86972 0.551122 -1.80833 
1 3.49947 0.755319 -0.423404 
1 2.68515 1.13456 -2.92335 
1 3.66262 0.948547 -2.46138 
1 3.63942 0.116811 0.461522 
1 2.68163 1.78881 1.67747 
1 2.87473 0.736946 1.2883 
1 2.66868 0.610614 0.24728 
1 3.46754 1.29247 0.607128 
1 -3.2952 1.85842 -2.76419 
1 1.94105 1.86189 -1.08994 
1 2.10934 2.051 -2.89717 
2 -3.19696 3.24834 -2.95113 
1 -3.12536 3.03064 -1.5677 
2 -2.95534 2.14676 -1.33839 
1 -2.59218 2.62042 -3.12006 
1 -2.80915 2.65017 -0.627357 
1 -2.51656 3.37905 -2.37053 
1 -2.53212 2.31722 -2.1154 
1 -2.48986 3.65602 -0.379408 
2 -2.29434 2.80179 -1.37051 
1 -2.11118 3.66005 -1.40191 
1 -2.07423 1.94576 -1.2489 
1 -1.61369 2.1171 -3.18576 
1 -1.61623 3.19249 -2.94333 
1 -1.753 2.8167 -0.658976 
1 -1.59921 2.87834 -1.91587 
2 -1.18744 2.77898 -3.57789 
1 -1.00495 3.45236 -1.10901 
1 -0.862403 2.35432 -1.37627 
1 -0.746517 2.43508 -2.63599 
2 -2.3245 3.65041 -3.23618 
2 -0.891134 2.68693 -0.541372 
1 -0.53623 3.33187 -3.19495 
1 -0.407179 3.23065 -2.03688 
1 -0.468399 2.29529 -3.67289 
1 -0.27095 3.11665 -0.0848585 
1 0.0138018 2.97953 -1.09763 
1 0.16067 1.99608 -1.59744 
1 -0.225483 2.08475 -0.532369 
2 0.291678 3.50013 -2.49534 
1 0.638757 2.90966 -1.97203 
1 0.322691 2.7283 -2.9951 
1 0.724641 3.41677 -0.437038 
1 1.07592 2.57145 -1.07048 
1 1.04837 1.89007 -3.25303 
1 1.29972 2.03012 -1.9772 
1 1.26576 3.60556 -1.33597 
1 0.687983 2.42771 -0.0894402 
2 1.51679 2.92502 -1.82523 
1 1.55803 3.59518 -3.45081 
1 1.39878 2.80624 -2.72983 
2 1.46704 2.94065 -0.349176 
1 2.28663 2.5358 -1.9554 
1 2.06486 2.9632 -1.01104 
1 -3.17734 3.27042 0.350261 
1 -3.24977 2.14484 0.236857 
1 -2.9182 2.67953 1.19422 
1 -2.36379 3.60112 1.25258 
2 -2.52648 2.05628 1.68374 
1 -2.14416 2.99342 0.399616 
1 -2.21887 1.98353 0.795483 
1 -1.84792 2.65765 1.51707 
2 -1.54626 3.51552 0.86899 
1 -1.40548 3.58033 1.74319 
1 -1.22429 2.49346 0.295515 
1 -0.709085 3.16962 1.00636 
1 -1.23671 3.53025 0.0362475 
1 -0.952516 2.1223 1.27346 
1 -0.217498 2.2774 0.528708 
1 -0.0269789 2.57188 1.69297 
1 0.478664 3.21237 0.709241 
1 0.731812 2.21225 0.951632 
1 1.14871 2.98058 1.5816 
1 1.69462 1.98885 1.28451 
1 1.48538 2.86191 0.537661 
1 2.16446 3.6099 -1.88677 
1 2.09841 2.32772 -0.126481 
1 2.28903 3.59828 0.481789 
2 1.93235 3.22733 1.2233 
1 3.86752 2.60943 -3.42089 
1 2.45698 3.14871 -2.81009 
1 2.48419 2.61568 0.920715 
1 0.283557 3.57633 1.71864 
1 -3.60005 3.35726 -0.648842 
1 -3.66159 3.32299 1.59451 
1 3.61408 3.06826 -2.37777 
1 2.85943 3.07616 -0.31522 
1 2.8155 2.56724 -3.58484 
1 3.60208 2.32418 -0.736055 
1 3.77766 2.17258 -1.80551 
1 3.47847 3.55756 -3.30425 
1 3.10197 2.96065 -1.41842 
1 3.12602 2.13052 -2.63511 
2 2.69914 2.31956 -0.820175 
1 2.72992 3.57452 1.49872 
1 3.51863 2.306 1.217 
1 3.30094 3.25928 0.659338 
1 3.15422 2.23271 0.218174 
1 0.817154 -3.08309 1.86212 
1 -1.82477 0.53186 1.91114 
1 1.8021 3.73531 1.95927 
1 -0.899567 -2.00364 2.09664 
1 -0.50808 -2.25646 3.03096 
1 -1.04324 -3.05992 2.15907 
1 -2.2627 -0.429936 2.19061 
1 -2.46786 -2.16937 2.45036 
1 -1.46695 -0.765078 2.98244 
2 -1.62087 -2.44193 2.40403 
1 -1.80452 -1.41096 2.07449 
1 -1.63519 -1.87731 3.07466 
1 -2.44316 -1.17111 3.1114 
1 -2.95759 -1.27958 2.2035 
1 -2.15825 -3.17133 2.30281 
1 -3.42614 -2.228 1.97101 
1 -1.39042 -2.90497 3.14265 
2 -1.52313 -3.65358 2.61514 
2 -1.42599 -0.142977 2.32543 
2 -0.945859 -1.44109 2.7519 
1 -0.917729 -0.830339 2.09175 
1 -2.89219 -2.044 3.5258 
2 -0.722034 -3.41451 2.95774 
1 -2.98713 -2.95427 2.96001 
2 -2.21372 -2.602 3.16232 
1 -0.0815124 -1.26745 2.68105 
1 -2.20877 -3.47816 3.42564 
1 -2.87734 -0.172804 3.07255 
1 -0.1437 -0.200584 2.3746 
1 -0.0336692 -3.14813 2.54142 
1 0.212893 -2.18231 2.17575 
1 -0.555569 -0.259686 3.35007 
1 -3.17861 -3.4863 2.09635 
1 -0.677173 -1.28175 3.57657 
1 -3.5793 -1.25476 3.23931 
1 0.489242 -1.98451 3.31744 
1 0.472556 -0.651881 3.3786 
1 0.614953 -0.78924 1.96379 
1 0.673207 -3.08939 3.3579 
2 1.00928 -1.29907 3.5877 
1 1.05818 -1.34323 2.70643 
1 1.16892 -2.42621 2.61579 
2 -2.16701 -0.485612 3.60274 
1 1.71594 -2.84574 3.4339 
1 1.80522 -0.129594 3.05688 
1 1.69033 -0.629692 2.11384 
1 1.94227 -1.21043 3.23748 
2 -3.46814 0.518075 3.25385 
1 -3.53323 1.37897 2.94511 
1 -3.29482 0.372514 2.28335 
1 -2.62357 0.916167 3.12858 
1 -2.4139 1.81343 3.64742 
1 -2.69396 1.20619 2.07422 
2 -2.4464 0.371173 2.50197 
1 -1.83559 0.200119 3.08383 
1 -1.65373 1.23009 2.73777 
1 -0.906223 0.48096 2.6755 
1 -0.62833 1.50442 3.04429 
1 -0.812333 1.23442 1.94565 
1 0.114779 0.687538 2.94296 
1 0.112571 1.5533 2.34505 
1 0.869006 0.000143233 2.62543 
1 1.12207 0.780856 3.41091 
1 1.05815 1.01261 2.33534 
2 1.61413 0.311196 2.27016 
1 1.86356 1.77218 2.39495 
1 2.22454 1.60899 3.58916 
1 2.0125 -1.82002 2.3453 
1 2.11136 -2.92012 2.42712 
1 2.10403 0.848223 2.81878 
2 2.20432 -2.01416 3.48513 
1 2.45149 0.144095 2.12837 
1 0.950402 1.82095 3.11172 
1 3.18502 0.651335 -3.74379 
2 3.65925 -1.5433 2.41476 
1 2.86282 -1.65357 2.95671 
1 2.95357 -1.28946 1.95734 
1 2.72232 -0.618301 2.78025 
1 3.72166 -0.619148 2.40469 
2 3.70228 -2.92649 2.41554 
1 3.02808 -3.47341 2.37234 
2 3.04819 -1.04027 3.52815 
1 3.53597 -0.266166 3.39274 
1 3.58776 -3.29324 3.33414 
1 2.99273 -2.3548 2.1514 
1 3.70435 -2.25462 2.95939 
1 2.75628 -2.6766 3.26498 
1 3.58456 1.27548 1.9244 
1 2.89993 1.57898 2.74475 
2 2.68362 1.00242 2.11985 
2 2.61956 0.193296 3.18387 
1 3.23838 0.546592 2.67941 
2 -3.29692 1.90359 -3.84265 
1 2.12949 2.72318 1.9105 
1 0.750667 -3.85581 2.62568 
1 1.80514 -3.87857 3.02007 
1 -3.00053 3.44402 3.67432 
1 -3.31104 2.19109 2.14782 
1 -2.92799 2.55138 3.13127 
2 -2.66255 3.62334 2.85369 
1 -2.6142 3.02723 2.17768 
1 -2.22461 2.08462 2.51505 
1 -2.02727 2.95933 3.55778 
1 -1.61907 2.98319 2.57827 
1 -1.41215 2.17897 3.2422 
1 -1.101 3.48763 3.37907 
1 -0.865956 2.26372 2.31771 
2 -0.731367 2.7614 3.04733 
1 -0.57258 3.34998 2.37874 
1 -0.037823 3.45397 3.29171 
1 0.0947062 2.47704 2.86609 
2 0.395495 2.21332 3.70194 
2 0.592333 2.8721 2.2558 
1 0.823588 2.95768 3.54776 
1 0.914005 2.05463 1.99524 
1 1.39061 2.70554 2.67491 
1 1.76509 2.57891 3.71416 
1 2.43088 2.54017 2.89709 
1 3.9377 3.30159 2.70788 
2 2.54372 3.35639 2.38483 
1 2.99237 3.38245 3.20947 
1 3.51101 2.37626 3.07593 
1 3.15409 2.72831 2.14503 
