ITEM: TIMESTEP
570
ITEM: NUMBER OF ATOMS
500
ITEM: BOX BOUNDS xy xz yz pp pp pp
-3.7345 3.854 0.119504
-3.7345 3.7345 0
-3.7345 3.7345 0
ITEM: ATOMS type xu yu zu 
1 0.050525 -2.19018 -2.24935 
1 -0.914648 -1.79994 -1.78928 
1 -0.489464 -1.53914 -2.86557 
1 -1.27658 -2.46062 -2.5148 
2 -1.73121 -1.88367 -3.02111 
1 -3.25856 -1.20784 -2.53987 
1 -1.15429 -2.3186 -0.817332 
1 -3.25842 -2.2602 -2.87222 
1 -0.714888 -2.88131 -1.59136 
1 -1.45861 -1.22951 -2.52746 
1 -2.26642 -2.10052 -2.35402 
1 -2.82916 -1.40019 -0.950127 
1 -2.51435 -1.53588 -3.218 
1 -3.07724 -0.701951 -3.4828 
1 -2.33322 -3.14675 -2.64247 
1 -0.10492 -2.37629 -0.776591 
1 -3.1629 -2.0081 -1.79797 
1 -2.3857 -1.12697 -1.93047 
1 -2.62837 -2.44058 -0.926173 
1 -1.84521 -2.74291 -1.60911 
1 -0.558234 -0.614086 -2.31073 
1 -0.856555 -1.26712 -0.838394 
1 -2.20081 -0.546166 -2.85037 
2 -1.60494 -1.48711 -0.412156 
1 -1.85512 -1.70468 -1.24903 
1 -2.93714 -3.09342 -1.68992 
2 -0.507658 -2.41325 -2.9394 
1 -1.30643 -0.74594 -1.60769 
1 -3.46098 -3.39251 -2.54197 
2 -0.898447 -0.797816 -3.12782 
1 -1.97149 -0.725816 -0.810159 
1 -0.451918 -3.1835 -2.57952 
1 -0.00898496 -1.3834 -1.47447 
1 -0.79821 -0.230831 -0.708992 
2 -0.425188 -0.568499 -1.43629 
1 -2.91502 -0.408408 -1.30676 
1 -1.39801 -3.22007 -3.2354 
2 -0.517548 -0.904656 -0.0842961 
2 0.194681 -1.06717 -2.51368 
1 0.189098 -0.489034 -0.785359 
2 -1.40391 -0.314347 -2.4623 
2 -2.76734 -0.654137 -0.442434 
1 -1.08664 -2.13724 -3.53804 
1 0.101645 -1.44742 -0.371709 
2 -3.40979 -1.52942 -3.38364 
2 -3.22634 -1.39607 -0.183289 
1 -1.60306 -1.18934 -3.57976 
1 -1.83343 -3.16871 -0.630116 
1 -3.40194 -3.08937 -0.542934 
1 -0.288327 -3.42467 -0.659811 
2 -2.82802 -0.442272 -2.23577 
1 -1.43152 -3.53134 -2.17624 
1 -1.95471 -2.25033 -0.112081 
1 -3.02253 -3.11131 -3.46979 
1 -1.38967 -0.15987 -3.49341 
2 -3.61125 -2.51381 -3.67181 
1 0.120852 -3.51378 -1.74869 
2 -2.58649 -2.90637 -0.163861 
1 -0.0309621 -0.499774 -3.2015 
2 -3.48915 -2.56553 -1.21962 
1 -2.122 -2.50088 -3.50326 
1 -2.08217 -0.100707 -1.87773 
2 0.185541 -2.65875 -1.54853 
1 0.319462 -2.47347 -3.2236 
1 0.326802 -3.52593 -3.25347 
1 0.395832 -0.50267 -1.85292 
2 0.415392 -3.01158 -2.51399 
1 0.50516 -1.42649 -3.26996 
1 0.744758 -3.00252 -0.981563 
1 0.832418 -2.19203 -0.130623 
1 0.878004 -1.44974 -2.09083 
1 0.85117 -1.92448 -1.14606 
2 -3.06512 -3.70416 -1.05562 
2 0.902724 -2.12234 -2.67735 
1 0.92175 -0.515004 -2.73371 
1 0.994112 -2.64113 -1.96922 
1 1.14816 -0.619689 -1.132 
1 1.15432 -1.18314 -0.218476 
1 1.2503 -0.080964 -0.11952 
2 -0.203926 -1.93894 -3.66938 
1 1.25127 -2.90097 -3.01732 
2 1.28951 -1.29822 -2.82979 
1 -0.471135 -3.00063 -3.69291 
2 1.31738 -0.675256 -1.97108 
1 1.41819 -1.92685 -3.40468 
1 -3.67646 -1.13594 -1.54815 
2 1.43047 -2.70118 -0.49726 
1 -3.13655 -2.22035 -0.0107967 
1 0.9435 -3.73067 -2.37175 
1 1.49323 -0.840466 -3.53219 
1 1.48741 -3.59457 -0.468222 
2 1.60339 -2.11418 -1.56815 
1 1.78332 -1.91818 -2.4085 
1 1.7807 -2.9183 -1.26545 
1 1.8668 -1.26757 -1.55808 
1 1.83398 -1.92377 -0.698951 
1 -2.52284 -1.20411 1.26342 
1 -1.82513 -2.30258 1.56401 
1 -0.823311 -2.12249 1.10526 
1 -1.66336 -1.54516 0.743085 
2 0.0521441 -2.12924 1.23618 
2 -2.10475 -0.750031 0.627158 
1 -1.59093 -0.643555 1.35169 
1 -3.60203 -2.32364 0.935854 
2 -1.26386 -1.45624 1.49535 
1 -1.20365 -3.13266 1.10834 
2 -2.85395 -1.94907 1.58396 
2 -1.6083 -2.4282 0.708038 
1 -2.49719 -2.16862 0.780336 
1 -3.0704 -0.700634 0.432458 
1 -0.401898 -3.49086 0.486383 
2 -3.12619 -1.56525 0.713116 
1 -0.68898 -1.05005 0.869319 
1 -2.82089 -2.84371 1.47424 
1 -3.21405 -0.468759 1.52306 
1 -0.168516 -2.9639 1.38125 
1 -0.00671413 -1.34166 1.61216 
1 -0.536686 -0.141067 0.336608 
2 -0.701615 -3.66716 1.60922 
1 0.0841256 -0.33903 1.25898 
1 -1.38229 -0.768331 0.0798559 
1 -2.09616 -3.16677 0.531166 
1 -0.889597 -1.75416 0.0728703 
1 -2.39824 -0.0390149 1.08543 
2 -2.01335 -3.1583 1.44438 
1 -3.16432 -3.19489 0.487121 
1 -1.10778 -2.83894 0.0935001 
1 -0.152795 -2.44307 0.33924 
1 -3.66895 -1.39587 1.40543 
1 0.388508 -0.588792 0.24746 
2 0.394249 -3.41444 0.869635 
1 0.531517 -3.17473 0.0280037 
1 0.366963 -1.56305 0.644296 
1 0.731381 -2.54419 0.882187 
1 0.986781 -1.79738 1.56157 
1 1.03867 -0.855762 1.06335 
1 0.992428 -3.30552 1.49522 
2 -3.42755 -3.64765 1.18496 
2 1.37363 -0.134079 0.76219 
1 -2.3757 -1.31752 0.00876542 
1 -2.23385 -0.115162 0.0325873 
1 1.56319 -2.87719 0.357865 
1 1.56354 -1.81778 0.570231 
2 1.74951 -3.38291 1.02715 
1 1.91086 -0.74754 0.432768 
1 -3.28599 1.09131 -3.47295 
1 -3.46203 0.462008 -1.45695 
1 -3.36624 1.81773 -2.75162 
1 -3.04666 1.62534 -0.649656 
1 -3.14185 0.124746 -0.393105 
1 -2.97099 1.37983 -1.78741 
1 -2.8486 0.438085 -2.39499 
1 -2.57293 0.259617 -3.44359 
1 -2.55468 0.775303 -0.947904 
1 -2.4005 1.36068 -2.7698 
1 -1.98453 0.95113 -1.80244 
1 -1.8299 1.03769 -3.6383 
1 -1.85883 0.868898 -0.108139 
2 -1.72411 1.17362 -0.927933 
1 -1.75473 0.473594 -2.72765 
1 -1.6435 0.291315 -0.980305 
2 -1.4006 0.0785594 -0.162094 
2 -1.23281 1.0094 -2.26751 
1 -1.11679 1.73972 -0.536079 
1 -1.05285 1.46239 -2.96822 
1 -1.04023 1.31499 -1.4762 
1 -1.05216 0.26123 -1.86122 
1 -3.61523 0.136648 -3.14146 
1 -0.829962 0.739767 -0.208311 
2 -0.813412 0.585921 -1.06205 
1 -0.68365 0.325043 -2.86044 
2 -0.409894 1.52896 -0.0399751 
1 -0.335254 1.08892 -2.21095 
2 -0.273646 1.12439 -3.12124 
1 -0.164242 1.21365 -0.89234 
1 -0.0819743 0.32079 -1.45477 
1 0.179268 0.531396 -3.55607 
1 0.165398 0.436162 -0.216916 
1 0.358485 0.369322 -2.52253 
2 0.459276 1.27644 -2.54952 
1 0.663462 1.12212 -1.7093 
1 0.856202 1.44186 -0.655776 
1 0.877559 0.421993 -0.952244 
1 1.11925 0.119347 -3.56812 
1 1.19844 1.00365 -2.91208 
1 1.21578 0.20694 -1.90582 
2 1.67779 0.0706854 -0.932443 
1 1.74697 0.84569 -0.444955 
1 1.79246 1.17985 -1.92129 
1 1.82437 1.82286 -0.932967 
1 1.85216 0.189085 -2.72711 
1 1.92951 1.84201 -2.8978 
1 -3.39322 0.548949 1.18199 
1 -2.92541 1.49659 1.19915 
1 -2.87519 0.998713 0.202624 
2 -2.97549 0.174119 0.477229 
2 -2.61866 0.663617 1.5592 
1 -2.07777 0.965254 0.932709 
1 -1.7769 0.46885 1.82424 
1 -1.64928 1.52663 1.78152 
1 -1.42761 0.204288 0.698171 
2 -1.23169 0.883532 1.23291 
1 -1.14123 1.41716 0.514658 
1 -0.826395 0.0812376 1.57994 
1 -0.375316 0.766634 0.854332 
1 0.0760155 1.62191 1.32391 
1 0.242287 0.617198 1.78981 
1 0.39292 1.36499 0.306383 
1 0.649154 0.362302 0.702953 
1 1.02267 1.18254 1.23639 
2 0.992736 0.783007 -0.00849891 
1 1.17765 0.142972 1.60569 
1 1.47924 1.56726 0.281525 
1 1.73003 0.625267 0.621412 
1 1.81278 -2.5539 1.38349 
1 1.95503 -0.82549 -2.53789 
1 1.98995 0.895572 1.70393 
1 1.98161 -2.97259 -2.28615 
1 1.96181 -1.28334 1.3977 
1 2.02926 0.691505 -3.62719 
1 2.04067 -0.697406 -0.628993 
2 2.10899 -0.000435691 -0.0101697 
1 2.13386 -0.119581 1.25548 
1 2.14928 -0.21928 -1.65316 
2 2.25959 1.05427 -1.14512 
1 3.79483 -0.285767 -2.18176 
1 3.79192 -0.764383 -0.528777 
2 2.29003 -2.34248 0.415658 
1 2.3216 -2.41893 -3.16318 
1 2.30736 -2.8134 -0.342134 
1 2.29603 -3.46564 -3.31584 
1 2.3992 -1.36488 -3.29789 
2 2.59689 -3.01202 -1.59945 
1 3.5714 -3.60669 -1.4272 
1 3.14644 -2.74295 -0.971409 
1 3.28778 -2.79984 -3.04781 
1 3.68143 -1.86138 -0.742881 
1 3.22893 -0.266771 -1.27635 
1 3.13957 -3.43469 -0.123543 
1 2.88224 -0.0020242 -2.60585 
2 2.73551 -2.52342 -2.39367 
1 2.87527 -0.512311 -0.0456207 
2 3.34757 -1.89046 -1.56994 
1 2.84449 -1.27481 -1.0045 
1 3.26353 -1.88183 -3.56727 
2 2.72512 -2.06577 -0.639907 
1 2.52584 -3.65678 -1.0086 
1 3.3679 -0.880554 -3.11128 
1 3.48873 -2.67359 -1.95664 
1 2.87547 -3.48135 -2.26863 
1 3.26062 -1.80722 -2.497 
1 2.86932 -0.951313 -2.04414 
1 2.49449 -0.331806 -3.56224 
1 2.50717 -2.13981 -1.60828 
2 2.8255 -0.0986391 0.742828 
2 2.52236 -3.19826 1.73857 
1 2.57027 -3.07527 0.840128 
1 3.26571 -0.199602 1.50333 
2 3.43902 -3.05657 0.633411 
2 3.65936 -0.696404 0.881978 
2 2.54891 -0.648348 1.79224 
1 3.40203 -3.12088 1.52383 
1 2.83258 -0.963049 0.948915 
1 2.5094 -1.55435 0.0536268 
1 3.1901 -2.39358 0.0915607 
1 2.8029 -2.0463 1.09034 
1 3.55487 -1.41264 0.331368 
1 3.26725 1.64156 -3.51103 
2 3.60625 1.53106 -0.362063 
1 2.51733 0.265967 -0.762602 
1 3.57298 1.36811 -1.23729 
1 2.7283 1.44922 -0.479357 
1 2.83113 0.66731 -1.71354 
1 3.4627 0.654596 -0.494701 
1 2.60167 1.03325 -2.74462 
1 2.68208 1.74322 -1.55515 
1 3.63182 0.922869 -2.4003 
1 3.08608 0.624134 -3.67869 
1 3.62133 0.0478789 0.407375 
1 2.55454 1.5609 0.630891 
1 2.75293 1.70824 1.69048 
1 2.95427 0.749174 1.25957 
1 2.69912 0.593291 0.227115 
1 3.5857 1.20327 0.47401 
1 -3.5231 3.33255 -0.523869 
2 -3.37204 2.02434 -3.6737 
2 -3.29182 3.28511 -2.92345 
1 -3.10363 3.02846 -1.49614 
2 -3.01013 2.16322 -1.32799 
1 -2.7939 2.60853 -3.16452 
1 -2.71778 2.64799 -0.590575 
1 -2.58274 3.35733 -2.3796 
1 -2.5913 2.3174 -2.12694 
1 -2.49347 3.67358 -0.286762 
2 -2.26985 2.75392 -1.37474 
1 -2.12678 3.62715 -1.35412 
1 -2.13225 1.89491 -1.22607 
1 -2.10379 1.89527 -0.158837 
1 -1.82667 2.18871 -3.15825 
1 -1.6912 3.30236 -2.98307 
1 -1.66117 2.78786 -0.705203 
1 -1.65291 2.91926 -1.9826 
1 -1.61221 1.86553 -2.1655 
2 -1.2598 2.78268 -3.5245 
1 -1.02542 3.55363 -1.12298 
1 -0.924692 2.39095 -1.43855 
1 -0.93265 2.51655 -2.70939 
2 -2.46333 3.5863 -3.29382 
2 -0.792491 2.55747 -0.592858 
2 -0.724612 1.86419 -2.16316 
1 -0.568378 3.41646 -3.11751 
1 -0.533737 3.24209 -2.04795 
1 -0.450776 2.49422 -3.68686 
1 -0.361676 3.11183 -0.0982953 
1 -0.0117536 3.04 -1.13858 
1 0.0193647 1.97653 -1.67655 
1 -0.0283284 1.95085 -2.81927 
1 0.0406271 2.17755 -0.526554 
2 0.146976 3.53551 -2.55055 
1 0.461834 2.85723 -2.11296 
1 0.445465 2.89904 -3.1788 
1 0.656872 3.30903 -0.293264 
1 0.967549 2.37631 -1.29257 
1 0.954101 1.94793 -3.38251 
1 1.00481 1.94369 -2.29795 
1 1.04191 3.45373 -1.27815 
1 1.13281 2.3997 -0.229854 
2 1.30615 2.96238 -1.9303 
1 1.42833 3.59918 -3.43039 
1 1.47721 2.80712 -2.76805 
2 1.65535 3.08579 -0.0421105 
2 1.88991 3.69299 -2.67227 
1 1.95037 2.38867 -1.90202 
1 1.93229 2.90996 -0.899683 
1 -3.53433 3.06979 1.58296 
1 -3.17269 3.20661 0.480259 
1 -3.09354 2.10086 0.302747 
1 -2.73889 2.56965 1.20011 
1 -2.4304 3.60942 1.2517 
2 -2.38262 1.98006 1.71628 
1 -2.11474 2.96279 0.412671 
1 -1.95673 1.9889 0.865293 
1 -1.75712 2.64527 1.64341 
2 -1.59843 3.56269 0.897671 
1 -1.44744 3.6279 1.77795 
1 -1.18846 2.47937 0.234623 
1 -0.799667 3.16433 1.01998 
1 -1.30032 3.57888 0.0550475 
1 -0.900501 2.09804 1.27491 
1 -0.190337 2.24455 0.50443 
1 -0.0182068 2.61491 1.71318 
1 0.302732 3.1795 0.820712 
1 0.851201 2.255 0.835032 
1 1.10102 3.08681 1.54956 
1 1.24918 3.63519 0.569174 
1 1.78628 1.88497 1.28338 
1 1.81626 2.82149 0.815788 
1 1.99362 3.52747 -1.80725 
1 1.97898 3.65695 1.77972 
1 2.20768 2.32731 -0.0335344 
1 2.31381 3.60637 0.259422 
1 2.26897 2.65807 1.82577 
2 2.47904 3.40579 1.08997 
1 3.62913 3.14099 -2.25587 
1 2.92682 3.01536 -0.386468 
1 3.62319 2.62746 -3.19598 
1 2.60816 2.4835 -3.49104 
1 3.6525 2.35148 -0.835199 
1 2.54754 3.07967 -2.61566 
1 3.75259 2.19076 -1.85599 
1 3.40007 3.62833 -3.18 
1 2.888 2.84805 -1.50664 
1 2.95022 2.06266 -2.54071 
2 2.63917 2.28311 -0.831962 
1 2.99868 3.42558 1.77987 
1 3.6719 2.06585 1.19314 
1 3.34924 3.54699 0.793067 
1 2.82922 2.62161 0.945212 
1 3.31216 2.18062 0.1396 
1 -1.01444 -1.97476 2.14313 
1 -0.566578 -2.2579 3.03248 
1 -0.948146 -3.03132 2.19849 
1 -2.34869 -0.386013 2.18587 
1 -2.51889 -2.21421 2.3905 
1 -1.39127 -0.730463 2.95443 
2 -1.66683 -2.53305 2.40283 
1 -1.88499 -1.34804 2.14312 
1 -1.6945 -1.89795 3.05359 
1 -2.43424 -1.13021 3.14977 
1 -3.01888 -1.29929 2.25453 
1 -2.23577 -3.23557 2.32238 
1 -3.54305 -2.28376 2.00983 
1 -1.43315 -2.90048 3.18036 
2 -1.51411 -3.59298 2.64049 
2 -1.46342 -0.2861 2.1727 
2 -0.93552 -1.46246 2.83727 
1 -0.862202 -0.924509 2.0647 
1 -2.93122 -2.06688 3.43389 
2 -0.722863 -3.36702 3.01398 
1 -3.08633 -2.99846 2.92673 
2 -2.28914 -2.65942 3.1145 
1 -0.0646206 -1.31114 2.68863 
1 -2.27148 -3.52272 3.37734 
1 -3.00274 -0.229452 3.05558 
1 -0.14339 -0.223095 2.36865 
1 0.0550781 -3.14582 2.71335 
1 0.0108777 -2.24164 2.12916 
1 -0.481165 -0.176564 3.36913 
1 -3.27322 -3.54106 2.06689 
1 -0.580732 -1.19363 3.60066 
1 -3.62172 -1.26788 3.24279 
1 0.466319 -2.13831 3.25962 
1 0.551867 -0.705005 3.34287 
1 0.716806 -0.709289 2.06249 
1 0.891049 -3.12484 3.3994 
1 0.988835 -3.66759 2.47044 
2 1.02576 -1.45124 3.45454 
1 0.984758 -1.55188 2.58256 
1 0.962531 -2.60209 2.29661 
2 -2.20299 -0.510111 3.73062 
1 1.55245 -2.33345 3.13449 
1 1.81524 -0.121661 3.12239 
1 1.75903 -0.621706 2.19446 
1 1.84658 -1.27523 3.10021 
2 -3.5057 0.419271 3.45982 
1 -3.47249 1.55879 2.99545 
1 -3.20108 0.348008 2.20067 
1 -2.75963 0.812136 3.13875 
1 -2.52824 1.79125 3.58707 
1 -2.64959 1.25804 2.1854 
2 -2.36467 0.462455 2.45386 
1 -1.96434 0.112184 3.13161 
1 -1.77454 1.12149 2.77101 
1 -1.03414 0.358218 2.623 
1 -0.822168 0.793672 3.66534 
1 -0.767526 1.46951 2.87171 
1 -0.69243 1.11325 1.88239 
1 -0.00729163 0.705272 2.88067 
1 0.0761225 1.56489 3.57838 
1 0.156445 1.61676 2.38541 
2 -0.787443 1.68881 3.71678 
1 0.873376 0.123425 2.71843 
1 1.06387 1.05307 3.39649 
1 1.11163 1.0699 2.31274 
2 1.67578 0.283611 2.31701 
1 1.89369 1.80154 2.37512 
1 2.01839 1.68729 3.47525 
1 1.95126 -1.90045 2.24046 
1 1.93726 -2.97473 2.38846 
1 2.13536 0.858315 2.80453 
2 2.19703 -1.94813 3.57083 
2 3.60731 -1.57306 2.45125 
1 2.78413 -1.70526 2.96569 
1 2.90584 -1.39743 1.96573 
1 2.67432 -0.685184 2.81931 
1 3.63853 -0.622427 2.39833 
2 3.59736 -3.00338 2.43593 
1 2.84912 -3.43493 2.58963 
2 2.99809 -1.07077 3.56365 
1 3.453 -0.302506 3.4268 
1 3.49474 -3.26276 3.428 
1 2.86982 -2.45913 2.15954 
1 3.59815 -2.30993 2.98633 
1 2.57004 -2.71333 3.31093 
1 3.68735 1.24859 1.95988 
1 2.93516 1.57133 2.80579 
2 2.81174 0.965963 2.15858 
2 2.66464 0.164431 3.13711 
1 3.3838 0.565181 2.76229 
1 2.56011 0.132754 2.20501 
1 0.242377 3.62425 1.86858 
1 1.8407 -3.77397 3.11325 
1 -3.187 3.39677 3.67602 
1 -3.17992 2.16063 2.09674 
1 -2.99107 2.57483 3.06674 
2 -2.82495 3.5803 2.87205 
1 -2.58827 3.06212 2.18672 
1 -2.1552 2.12174 2.56136 
1 -2.12013 2.92529 3.57894 
1 -1.64051 3.04735 2.6564 
1 -1.4104 2.1666 3.32379 
1 -1.17254 3.52483 3.45886 
1 -0.939858 2.3324 2.30239 
2 -0.838482 2.81353 3.05356 
1 -0.631779 3.40694 2.43459 
1 -0.133771 3.47229 3.3907 
1 -0.0027848 2.57762 2.79918 
2 0.403059 2.40773 3.56276 
2 0.660013 2.9448 2.32438 
1 0.815969 3.14598 3.24695 
1 0.971415 2.04588 2.99007 
1 0.94653 2.11517 1.91416 
1 1.52751 2.84559 2.5229 
1 1.64279 2.65633 3.62207 
2 2.43258 3.30439 2.46399 
1 2.45644 2.53939 2.90442 
1 3.76963 3.3153 2.70228 
1 2.92131 3.35276 3.39971 
1 3.45748 2.43401 3.26017 
1 3.27687 2.46587 2.20211 
