ITEM: TIMESTEP
993
ITEM: NUMBER OF ATOMS
500
ITEM: BOX BOUNDS xy xz yz pp pp pp
-3.7345 3.854 0.119504
-3.7345 3.7345 0
-3.7345 3.7345 0
ITEM: ATOMS type xu yu zu 
1 3.28691 -1.87792 -3.56992 
1 -1.68209 -1.21469 -3.55348 
1 -2.89723 -2.04293 3.52244 
1 2.81116 -1.27896 -1.08455 
1 0.927351 1.8227 3.11431 
1 3.12678 2.72577 2.1461 
1 2.70626 -0.623419 2.77874 
1 -0.437663 3.23741 -2.03541 
1 2.85125 0.548833 -1.80833 
1 -3.20539 1.53046 -0.755589 
1 0.671009 -3.0898 3.35725 
1 0.743481 -2.99847 -0.878335 
1 -1.24781 2.49349 0.295959 
1 -0.904826 -1.99888 2.09341 
1 -2.48348 0.277745 -3.48482 
1 -2.49225 -1.18312 1.24916 
1 -1.39289 -2.90272 3.14245 
1 -0.74486 0.209691 -2.80791 
1 1.14386 -0.835848 1.09255 
1 0.362504 -0.684544 -1.81192 
1 1.52725 3.59676 -3.45258 
1 3.57448 2.32152 -0.737183 
1 -2.24084 1.98223 0.798395 
1 -1.3473 -0.825579 0.0289863 
1 3.75423 2.17262 -1.80676 
1 2.83114 3.07346 -0.315899 
1 1.0783 0.151721 1.56317 
1 1.7147 -2.84991 3.43392 
1 -0.563263 3.33423 -3.19545 
1 3.19977 -0.268589 -1.22192 
1 0.871932 -2.22288 -0.0977615 
1 -2.32925 0.91499 1.00419 
1 0.00152236 -1.58811 -1.4368 
1 1.03817 1.01115 2.33951 
1 2.08496 2.05019 -2.89634 
1 1.89241 -0.718161 0.382457 
1 2.56578 -1.4928 0.0172391 
1 1.82216 -1.85716 -2.48679 
1 -3.31564 0.370935 2.28417 
1 -0.736859 3.16925 1.00864 
1 -1.78374 -2.34991 1.54376 
1 -3.16447 -1.95672 -1.82468 
1 -2.71518 1.20496 2.07593 
1 -3.24182 1.07681 -3.48418 
1 2.65839 1.78889 1.67962 
1 0.930062 -1.96998 -1.1413 
1 0.462414 -0.665277 3.38776 
1 -0.922151 -0.831981 2.08879 
1 3.76575 -0.176441 -2.15201 
1 3.26355 -0.184952 1.55611 
1 -0.883195 0.200352 1.63362 
1 0.649678 -3.22766 0.172293 
1 -1.28086 1.80188 -0.481663 
1 -0.355229 0.976096 -2.05197 
1 -2.24214 -0.503593 -2.81156 
1 3.51938 -0.268354 3.39011 
1 -0.945413 -1.80573 -1.83167 
1 3.3305 1.66276 -3.59986 
1 -0.0332608 -3.14989 2.53818 
1 -1.2575 -2.54988 -2.52865 
1 -3.02775 3.44178 3.67575 
1 -1.06346 0.213658 -1.8051 
1 -3.29083 -1.117 -2.53614 
1 2.13292 3.60511 -1.88671 
1 -0.886343 2.26404 2.3192 
1 2.03477 2.96118 -1.01069 
1 0.893287 2.05462 1.99536 
1 -2.09846 1.94417 -1.24862 
1 1.10584 0.785846 3.4169 
1 1.88568 0.946465 1.66868 
1 3.10204 2.13102 -2.63551 
1 -0.0710063 -2.45009 0.385532 
1 -1.04315 -3.0569 2.15857 
1 3.67098 -1.82494 -0.755926 
1 1.67283 1.98729 1.28409 
1 1.72742 0.946913 -0.461652 
1 3.27409 3.26024 0.658134 
1 -2.6371 3.02649 2.18176 
1 2.43719 0.144508 2.13139 
1 1.14358 0.0882059 -1.98939 
1 -2.3102 1.83783 -0.225446 
1 0.100439 0.332572 -0.310039 
1 -0.157697 -0.19749 2.37921 
1 -1.26499 3.5311 0.0364347 
1 -1.8716 2.65776 1.51832 
1 3.4509 3.5581 -3.30277 
1 -1.73614 1.03695 -3.63769 
1 2.10197 2.72342 1.91063 
1 -0.563118 -0.256656 3.35691 
1 -0.0142322 2.98132 -1.09844 
1 -0.88635 2.35562 -1.37772 
1 -1.18871 -3.16658 1.06616 
1 3.59043 -3.29426 3.33466 
1 0.877956 -1.56174 -2.1375 
1 3.39602 -0.8697 -3.1704 
1 3.62356 0.11615 0.462219 
1 -3.68994 3.31878 1.59426 
1 0.450807 3.21096 0.707494 
1 0.0705447 2.47896 2.86842 
1 0.108769 1.72573 -2.64856 
1 -2.05326 2.95855 3.55547 
1 -3.62674 3.35412 -0.644513 
1 2.2618 3.59818 0.480953 
1 -2.61847 2.61824 -3.12222 
1 -2.45644 -2.1623 0.744313 
1 -1.62463 2.87967 -1.91677 
1 2.86548 -0.799047 -2.13453 
1 2.70242 3.57334 1.49797 
1 -1.16628 -2.3644 -0.879548 
1 1.87628 -1.92969 -0.680253 
1 2.36136 -2.79529 -0.323148 
1 1.73662 2.57879 3.71531 
1 3.20526 -1.74041 -2.48792 
1 2.56615 -3.60873 -0.994219 
1 2.99174 -2.35519 2.14683 
1 2.89622 -1.98373 1.08019 
1 0.795884 2.96137 3.54591 
1 -0.491534 2.29644 -3.67133 
1 -0.832836 1.23444 1.95012 
1 -2.98763 -3.06956 -3.4258 
1 -3.70364 -1.09392 -1.56251 
1 -1.6738 1.22921 2.73996 
1 -3.63649 -1.3396 1.3929 
1 2.39229 -3.46806 -3.47164 
1 -0.218151 -2.91666 1.48816 
1 0.828088 -2.5492 0.976208 
1 0.242996 1.3587 0.165222 
1 -0.898556 1.37336 -2.87662 
1 2.38912 -1.38977 -3.28125 
1 -0.414908 -3.2805 -2.61282 
1 -1.53232 -1.21297 -2.5002 
1 -2.77269 -2.84559 1.42492 
1 -2.434 -1.09512 -1.9039 
1 2.07348 2.32451 -0.126878 
1 -0.16955 -1.38878 1.59641 
1 0.53892 0.414103 0.653026 
1 3.27963 1.41397 -1.27298 
1 1.88328 -0.747191 -2.56281 
1 -2.82486 0.469535 -2.40116 
1 -3.15364 1.62629 1.1947 
1 -3.1768 -0.388096 1.52059 
1 3.53969 -3.58463 -1.54784 
1 0.709115 2.21149 0.952571 
1 1.42043 -1.9569 -3.52029 
1 -2.60454 -2.44319 -0.982366 
1 -2.83477 2.64824 -0.627882 
1 2.68004 -3.006 0.808475 
1 -1.5352 1.8432 -2.15997 
1 1.29286 -2.9088 -3.04069 
1 2.36846 1.5448 0.640798 
1 1.77473 3.73748 1.95746 
1 0.501624 -1.57303 0.736839 
1 -0.59561 -0.134095 0.33568 
1 -3.27121 2.14616 0.239437 
1 -2.54222 3.37919 -2.37208 
1 1.04056 -3.69648 -2.38604 
1 -0.240815 2.27718 0.530751 
1 -3.42826 -2.22975 1.97068 
1 2.00651 -1.81915 2.34102 
1 -1.77943 2.81596 -0.657878 
1 3.22055 0.551637 2.68423 
1 3.49486 2.30449 1.21827 
1 -2.55591 2.31671 -2.11645 
1 1.79281 -0.134546 3.05693 
1 -3.13745 0.142712 -0.305496 
1 0.138167 1.99588 -1.59473 
1 3.13236 2.23357 0.2198 
1 3.91084 3.29924 2.7086 
1 0.816022 -3.08453 1.85508 
1 0.609854 2.91138 -1.97297 
1 1.37723 2.81007 -2.7264 
1 -0.248908 2.08625 -0.531819 
1 3.83856 2.60926 -3.41671 
1 -2.59663 0.712403 -0.978146 
1 0.937299 1.19957 1.24841 
1 -3.1782 -3.49027 2.09417 
1 -3.335 2.19228 2.14947 
1 2.11478 -2.9203 2.42879 
1 2.86026 -3.46546 -2.4085 
1 3.48357 0.756416 -0.422312 
1 3.29261 -2.84773 -3.14738 
1 -2.2102 -3.47828 3.42136 
1 -2.2482 2.08351 2.51887 
1 2.45973 2.61605 0.921275 
1 1.78172 -2.91758 -1.23501 
1 -1.45841 0.346753 0.681358 
1 3.56316 1.27625 1.92721 
1 -1.04778 -2.90736 0.0413642 
1 -3.20229 3.27205 0.357651 
1 -3.05354 1.06402 0.219298 
1 0.209209 -2.18436 2.17403 
1 1.15152 -0.540705 -1.13635 
1 2.85334 0.738866 1.28898 
1 -2.27603 -0.431048 2.19237 
1 1.31339 1.64511 0.26089 
1 -1.81067 -1.40772 2.06721 
1 2.19616 1.60688 3.59064 
1 3.57936 -1.37797 0.355954 
1 0.869844 1.55844 -0.752811 
1 -2.44863 -1.16915 3.10935 
1 3.48417 2.37836 3.07881 
1 -0.805073 -2.15711 1.05973 
1 -1.80533 -2.82057 -1.61062 
1 -2.89555 -0.175428 3.07198 
1 0.476119 -1.52166 -3.20482 
1 3.16631 -2.72473 -1.01082 
1 0.862706 0.522257 -1.01736 
1 -2.26168 -0.142228 1.12512 
1 -3.14968 3.03066 -1.56736 
1 0.222923 0.287178 -3.54841 
1 2.08555 0.846193 2.82147 
1 1.43874 -0.613729 -3.53568 
1 -0.679683 -1.27846 3.57664 
1 0.240202 0.237082 -2.48476 
1 -0.828679 -1.31913 -0.834519 
1 -0.0405499 -0.337343 1.24824 
1 3.17696 -3.42643 -0.0685308 
1 -1.43519 3.58284 1.74353 
1 2.51184 -0.406362 -3.63601 
1 3.50091 -2.64404 -2.01655 
1 1.12136 2.98215 1.58145 
1 0.695897 3.41301 -0.434706 
1 -3.53249 -2.27476 0.903985 
1 0.754638 -3.85384 2.62233 
1 -1.38668 -3.59837 -2.18574 
1 1.62394 0.684376 0.566007 
1 -3.55151 1.38487 2.94879 
1 3.69825 -2.25684 2.95865 
1 -1.36748 1.42881 0.567992 
1 -0.590983 -0.700512 -2.27105 
1 2.40343 2.54148 2.89791 
1 -1.43371 2.17932 3.24235 
1 1.84077 1.77123 2.39845 
1 0.486961 -1.9898 3.30386 
1 2.87257 -0.413984 -0.0450788 
1 -1.33355 -0.781572 -1.57248 
1 3.03029 -3.47553 2.37245 
1 -1.86555 -1.70438 -1.26686 
1 2.85463 -1.65706 2.95344 
1 -3.49255 0.102965 -3.17663 
1 2.10758 -0.239872 -1.6011 
1 1.19593 -0.0350913 -0.175686 
1 2.96512 3.38253 3.21162 
1 -1.08127 -2.22006 -3.55002 
1 0.0418757 -2.25872 -2.29414 
1 -3.59023 -1.25659 3.23747 
1 -3.39861 -3.08674 -0.591532 
1 -2.00814 -0.706042 -0.812976 
1 -2.84315 -1.37946 -0.951667 
1 -2.39273 3.5994 1.25164 
1 -0.0472442 1.58122 1.30199 
1 -0.0952395 1.13702 -0.975531 
1 0.320198 -2.55915 -3.26281 
1 1.06661 -1.7698 1.6777 
1 -0.504639 0.813624 0.797413 
1 -2.0032 0.857137 -0.0716187 
1 -3.09336 -2.21662 -0.0680144 
1 -3.10724 -3.16219 0.43674 
1 1.80796 -3.87908 3.01903 
1 1.5828 -3.63395 -0.3886 
1 0.853373 -0.000349113 2.63694 
1 -1.75364 0.486263 -2.6916 
1 -1.6393 -1.87499 3.07166 
1 -1.80885 -3.22086 -0.633669 
1 0.36834 -3.65751 -3.26351 
1 -2.17012 2.99063 0.399337 
1 0.697997 1.0932 -1.93308 
1 1.16926 -2.4326 2.60971 
1 1.93183 -2.47107 1.4329 
1 -2.20306 -0.154841 0.0606654 
1 -2.97858 -0.34085 -1.27259 
1 1.67796 -0.627794 2.11142 
1 2.9939 0.0828312 -2.8245 
1 -2.95518 2.54744 3.13485 
1 -1.63553 2.11793 -3.18573 
1 2.87732 1.58065 2.74804 
1 1.27054 2.0302 -1.97948 
1 0.0975099 0.690891 2.94624 
1 -0.51399 -2.25668 3.02681 
1 -0.975501 2.12181 1.27531 
1 -0.0862656 -1.26819 2.6781 
1 -0.129099 -2.40932 -0.717112 
1 0.299115 2.73169 -2.99568 
1 3.44762 1.29326 0.60928 
1 1.02715 1.89031 -3.24845 
1 0.157531 1.36315 3.8139 
1 -0.0655592 0.161931 -1.42274 
1 -0.799613 -0.258625 -0.738159 
1 -2.08612 -2.50297 -3.45576 
1 -0.600611 3.3529 2.37823 
1 -2.1884 -2.09568 -2.25104 
1 -0.0501393 2.57096 1.6932 
1 -0.768492 2.43794 -2.63408 
1 -0.896169 0.808912 -0.228925 
1 2.25805 2.53282 -1.95425 
1 -1.9381 -2.28056 -0.151591 
1 1.66908 -2.86976 0.43725 
1 -2.96911 -1.27979 2.20543 
1 0.390339 -0.595627 0.291804 
1 -1.85544 0.196642 3.08131 
1 -1.64396 3.19221 -2.94551 
1 2.04819 -0.0656371 1.17785 
1 3.58893 3.06916 -2.37626 
1 2.05073 0.30862 -2.50321 
1 -2.15872 -3.16874 2.30023 
1 -2.14079 3.65879 -1.40102 
1 -0.517291 -1.15878 0.655806 
1 0.795994 -0.634823 -2.73382 
1 2.75521 -2.68027 3.27032 
1 -0.299997 3.11443 -0.0847856 
1 -3.56547 0.560991 -1.40273 
1 -0.0655755 3.45893 3.29043 
1 -3.41399 0.618036 1.23693 
1 -1.03427 3.45397 -1.10801 
1 -0.333745 -3.48034 0.541677 
1 2.07286 0.552698 -3.59704 
1 1.93028 -1.217 3.24243 
1 -1.79466 1.58323 1.68317 
1 1.0462 2.56796 -1.07121 
1 1.61815 -1.79302 0.528888 
1 -2.99361 1.37913 -1.81371 
1 -3.31869 1.85546 -2.76555 
1 -2.98861 -2.95216 2.9542 
1 -1.3162 -0.620427 1.12479 
1 -2.00598 0.97814 -1.78151 
1 1.05385 -1.34764 2.69212 
1 2.65208 0.612145 0.24615 
1 3.07387 2.95849 -1.41922 
1 2.02622 -1.34792 1.39174 
1 -2.09704 -0.0831705 -1.81684 
1 -2.43347 1.81081 3.64651 
1 -2.52007 3.65553 -0.377233 
1 -1.64069 2.98219 2.57763 
1 -3.49453 -3.44375 -2.57062 
1 -2.34981 1.39495 -2.77748 
1 1.36424 2.7065 2.67557 
1 0.213104 -3.45884 -1.74003 
1 1.54172 1.20332 -2.59804 
1 0.128986 0.629365 1.7694 
1 0.664619 2.42382 -0.0882789 
1 2.51316 0.353014 -0.771497 
1 1.15372 0.327146 -3.06738 
1 2.7872 2.56375 -3.58492 
1 -2.51783 -1.57026 -3.07447 
1 -0.465043 -3.08498 -3.72388 
1 -2.27756 -3.13284 -2.60715 
1 -2.64424 0.913602 3.1292 
1 -1.62661 0.340261 -0.925622 
1 3.16834 0.646918 -3.73855 
1 0.253491 3.57573 1.71636 
1 3.78894 -0.745482 -0.502802 
1 1.74378 0.830685 -1.54656 
1 -2.37346 -1.33215 0.0163963 
1 -2.9608 -3.06366 -1.74738 
1 2.82759 -0.900009 0.917167 
1 0.0651768 -1.52747 -0.219758 
1 0.0923616 1.55528 2.34689 
1 1.46027 2.86032 0.537306 
1 -0.943864 -1.87345 0.032085 
1 -0.736446 0.729443 3.74378 
1 -0.145992 -0.647906 -3.19783 
1 -0.317844 -3.44787 -0.674476 
1 1.99749 -2.8641 -2.25606 
1 0.181943 -0.653033 -0.759888 
1 1.91562 1.85904 -1.09113 
1 2.44632 1.51448 -1.97004 
1 -1.08798 1.28811 -1.36246 
1 1.12787 -1.18266 -0.266596 
1 -1.84352 0.531457 1.91325 
1 1.30373 3.82748 0.982444 
1 -1.47081 -0.763274 2.98061 
1 2.52351 -2.15215 -1.65081 
1 3.64251 0.944251 -2.4627 
1 2.94223 -1.29084 1.95416 
1 -2.06182 -3.19713 0.485121 
1 2.6963 1.4938 -0.396464 
1 0.986423 -2.67137 -1.97914 
1 3.24537 -2.36195 0.0738193 
1 -0.646255 -2.8632 -1.64262 
1 -0.648353 1.50527 3.04608 
1 3.70522 -0.622806 2.40251 
1 -1.61677 -1.5641 0.771375 
1 2.43597 3.14669 -2.80752 
1 3.50063 -3.05982 1.50193 
1 -0.58495 -1.61374 -2.86148 
1 -0.924565 0.479286 2.68026 
1 -3.33798 -2.23363 -2.86313 
1 -1.44064 -0.180316 -3.48254 
1 -2.9894 -0.743483 -3.52286 
1 -1.12883 3.49019 3.37851 
1 1.2331 3.60333 -1.33508 
1 -3.05904 -0.666769 0.450886 
1 -1.41119 -3.30909 -3.26793 
1 2.32108 -2.44874 -3.21413 
1 0.603407 -0.780752 1.96441 
1 2.66353 1.13268 -2.92248 
1 -2.46961 -2.16624 2.44803 
1 1.81929 -1.29453 -1.56082 
1 -2.94182 2.67754 1.19809 
1 2.05202 -0.664639 -0.642103 
2 1.66661 0.156927 -0.928904 
2 0.445109 -3.05564 -2.55272 
2 -0.990775 -0.855004 -3.11272 
2 3.66411 -0.63889 0.900817 
2 1.90494 3.22701 1.22263 
2 -3.2229 3.24764 -2.95007 
2 1.97969 3.89818 -2.74467 
2 -0.187186 0.874982 -2.97388 
2 -1.61996 -1.50688 -0.44829 
2 1.95189 -3.3205 1.18361 
2 -1.21193 2.78047 -3.57917 
2 -0.643207 1.79423 -2.04166 
2 0.251251 -2.55291 -1.49384 
2 2.60525 0.189379 3.18494 
2 -3.07681 -1.5367 0.702377 
2 -3.4872 0.518388 3.25203 
2 -2.35152 3.65584 -3.23675 
2 1.23921 -0.780693 -1.97635 
2 1.27625 -0.0938497 0.694334 
2 -1.36297 0.0530857 -0.135162 
2 -1.57465 3.51483 0.869076 
2 2.45321 1.13593 -1.15841 
2 2.05889 0.0478666 -0.043445 
2 -0.700413 -3.66132 1.60479 
2 2.7711 -2.51731 -2.46899 
2 1.31186 -1.3032 -2.94337 
2 3.03615 -1.04479 3.52742 
2 2.64658 -3.04086 -1.66181 
2 -0.465293 -0.839853 -0.167458 
2 1.43813 2.93536 -0.349251 
2 0.56689 2.8722 2.25639 
2 -3.31656 1.90236 -3.82997 
2 1.63235 -2.15644 -1.66811 
2 -1.23046 0.98452 -2.18293 
2 -2.97898 2.14634 -1.34021 
2 -0.755572 0.551399 -1.05142 
2 -2.89499 0.228233 0.585862 
2 -2.4674 0.369732 2.50159 
2 2.76825 -2.04695 -0.646005 
2 3.35907 -1.87917 -1.58715 
2 -1.67416 -1.90777 -2.97908 
2 3.52942 -3.00881 0.620487 
2 -1.43781 -0.145487 2.32051 
2 2.36917 -2.27694 0.405062 
2 2.20864 -2.01431 3.49298 
2 0.931796 -2.16991 -2.74917 
2 -1.32547 0.932506 1.29968 
2 -1.42753 -0.319351 -2.42418 
2 -0.722376 -3.4101 2.95712 
2 2.66471 1.00333 2.12228 
2 0.106829 -1.24215 -2.44904 
2 1.48788 2.92151 -1.82086 
2 -2.68943 0.398159 1.63937 
2 -2.31861 2.79997 -1.37064 
2 -2.56214 -2.92731 -0.227995 
2 -2.54874 2.05507 1.68716 
2 -1.5673 -2.45135 0.653204 
2 -3.31756 -3.55423 1.18556 
2 -1.52385 -3.65119 2.61513 
2 0.260975 3.50335 -2.49503 
2 -3.47666 -2.52553 -1.24826 
2 -2.21645 -2.60119 3.15864 
2 3.58657 1.60662 -0.205209 
2 1.02397 -1.30207 3.56738 
2 -2.78109 -0.641321 -0.422305 
2 -2.86141 -0.389982 -2.18248 
2 0.373661 2.21474 3.70563 
2 -2.02385 -0.80205 0.609939 
2 0.705242 1.08983 -2.8994 
2 3.70333 -2.92838 2.4135 
2 -0.500677 -2.5018 -2.96092 
2 -0.624625 1.58744 0.119753 
2 -3.10731 -3.69965 -1.13792 
2 3.64764 -1.5475 2.41195 
2 -0.210671 -1.95611 -3.63232 
2 -1.9794 -3.19006 1.41514 
2 0.381999 -3.34504 1.0356 
2 1.48318 -2.73852 -0.430216 
2 -2.18088 -0.486189 3.6056 
2 -2.69553 3.62497 2.85413 
2 2.67112 2.31958 -0.823853 
2 -1.83631 1.19961 -0.872239 
2 0.0883799 -2.14681 1.25172 
2 -3.40071 -1.506 -3.37019 
2 0.911173 0.82181 -0.108803 
2 -3.22819 -1.39026 -0.183132 
2 -0.755534 2.7645 3.0479 
2 -1.07357 -1.4133 1.44756 
2 2.47438 -0.617095 1.69692 
2 -0.43505 -0.736752 -1.40034 
2 -1.06934 1.61077 3.79105 
2 2.63425 -3.01953 1.70709 
2 2.51663 3.35553 2.38453 
2 2.82821 -0.037719 0.79457 
2 1.59729 0.308949 2.2738 
2 -1.62257 -2.44047 2.40254 
2 -0.94907 -1.44 2.75241 
2 -0.917788 2.68526 -0.542776 
2 -2.6485 -1.97009 1.60289 
2 -3.59573 -2.52599 -3.70944 
