ITEM: TIMESTEP
569
ITEM: NUMBER OF ATOMS
500
ITEM: BOX BOUNDS xy xz yz pp pp pp
-3.7345 3.84654 0.112035
-3.7345 3.7345 0
-3.7345 3.7345 0
ITEM: ATOMS type xu yu zu 
1 3.26167 -1.88183 -3.56727 
1 -1.60561 -1.18934 -3.57976 
1 -2.93289 -2.06688 3.43389 
1 2.84203 -1.27481 -1.0045 
1 0.965634 2.04588 2.99007 
1 3.27067 2.46587 2.20211 
1 2.67127 -0.685184 2.81931 
1 -0.540713 3.24209 -2.04795 
1 2.82672 0.66731 -1.71354 
1 -3.05202 1.62534 -0.649656 
1 0.890439 -3.12484 3.3994 
1 0.744026 -3.00252 -0.981563 
1 -1.19467 2.47937 0.234623 
1 -1.0162 -1.97476 2.14313 
1 -2.57692 0.259617 -3.44359 
1 -2.52537 -1.20411 1.26342 
1 -1.43398 -2.90048 3.18036 
1 -0.687709 0.325043 -2.86044 
1 1.03579 -0.855762 1.06335 
1 0.392601 -0.50267 -1.85292 
1 1.421 3.59918 -3.43039 
1 3.64641 2.35148 -0.835199 
1 -1.96245 1.9889 0.865293 
1 -1.38526 -0.768331 0.0798559 
1 3.74666 2.19076 -1.85599 
1 2.92007 3.01536 -0.386468 
1 1.17378 0.142972 1.60569 
1 1.55105 -2.33345 3.13449 
1 -0.575529 3.41646 -3.11751 
1 3.22546 -0.266771 -1.27635 
1 0.830876 -2.19203 -0.130623 
1 -2.08247 0.965254 0.932709 
1 -0.0113361 -1.3834 -1.47447 
1 1.10682 1.0699 2.31274 
1 1.92394 1.84201 -2.8978 
1 1.90787 -0.74754 0.432768 
1 2.50722 -1.55435 0.0536268 
1 1.7815 -1.91818 -2.4085 
1 -3.20516 0.348008 2.20067 
1 -0.806566 3.16433 1.01998 
1 -1.82656 -2.30258 1.56401 
1 -3.16463 -2.0081 -1.79797 
1 -2.65458 1.25804 2.1854 
1 -3.29082 1.09131 -3.47295 
1 2.74749 1.70824 1.69048 
1 0.84936 -1.92448 -1.14606 
1 0.548837 -0.705005 3.34287 
1 -0.865012 -0.924509 2.0647 
1 3.79138 -0.285767 -2.18176 
1 3.26217 -0.199602 1.50333 
1 -0.830211 0.0812376 1.57994 
1 0.530957 -3.17473 0.0280037 
1 -1.12226 1.73972 -0.536079 
1 -0.340078 1.08892 -2.21095 
1 -2.204 -0.546166 -2.85037 
1 3.44956 -0.302506 3.4268 
1 -0.916582 -1.79994 -1.78928 
1 3.26187 1.64156 -3.51103 
1 0.0544895 -3.14582 2.71335 
1 -1.27786 -2.46062 -2.5148 
1 -3.19413 3.39677 3.67602 
1 -1.05616 0.26123 -1.86122 
1 -3.26109 -1.20784 -2.53987 
1 1.98636 3.52747 -1.80725 
1 -0.945925 2.3324 2.30239 
1 1.92564 2.90996 -0.899683 
1 0.940681 2.11517 1.91416 
1 -2.13788 1.89491 -1.22607 
1 1.05908 1.05307 3.39649 
1 1.98532 0.895572 1.70393 
1 2.94443 2.06266 -2.54071 
1 -0.154086 -2.44307 0.33924 
1 -0.948849 -3.03132 2.19849 
1 3.67956 -1.86138 -0.742881 
1 1.78066 1.88497 1.28338 
1 1.74239 0.84569 -0.444955 
1 3.34196 3.54699 0.793067 
1 -2.59506 3.06212 2.18672 
1 2.55624 0.132754 2.20501 
1 1.21184 0.20694 -1.90582 
1 -2.10942 1.89527 -0.158837 
1 0.161227 0.436162 -0.216916 
1 -0.146902 -0.223095 2.36865 
1 -1.30763 3.57888 0.0550475 
1 -1.7635 2.64527 1.64341 
1 3.39271 3.62833 -3.18 
1 -1.83468 1.03769 -3.6383 
1 2.26258 2.65807 1.82577 
1 -0.484723 -0.176564 3.36913 
1 -0.0185281 3.04 -1.13858 
1 -0.930818 2.39095 -1.43855 
1 -1.20426 -3.13266 1.10834 
1 3.49427 -3.26276 3.428 
1 0.875719 -1.44974 -2.09083 
1 3.36505 -0.880554 -3.11128 
1 3.61755 0.0478789 0.407375 
1 -3.54113 3.06979 1.58296 
1 0.295818 3.1795 0.820712 
1 -0.00909691 2.57762 2.79918 
1 -0.0340138 1.95085 -2.81927 
1 -2.12679 2.92529 3.57894 
1 -3.53017 3.33255 -0.523869 
1 2.30647 3.60637 0.259422 
1 -2.80024 2.60853 -3.16452 
1 -2.49876 -2.16862 0.780336 
1 -1.65956 2.91926 -1.9826 
1 2.86654 -0.951313 -2.04414 
1 2.99152 3.42558 1.77987 
1 -1.15571 -2.3186 -0.817332 
1 1.83217 -1.92377 -0.698951 
1 2.30644 -2.8134 -0.342134 
1 1.6364 2.65633 3.62207 
1 3.2587 -1.80722 -2.497 
1 2.52576 -3.65678 -1.0086 
1 2.86854 -2.45913 2.15954 
1 2.80121 -2.0463 1.09034 
1 0.809089 3.14598 3.24695 
1 -0.457005 2.49422 -3.68686 
1 -0.697278 1.11325 1.88239 
1 -3.02315 -3.11131 -3.46979 
1 -3.67906 -1.13594 -1.54815 
1 -1.77939 1.12149 2.77101 
1 -3.67129 -1.39587 1.40543 
1 2.29576 -3.46564 -3.31584 
1 -0.169287 -2.9639 1.38125 
1 0.730191 -2.54419 0.882187 
1 0.387821 1.36499 0.306383 
1 -1.05805 1.46239 -2.96822 
1 2.39683 -1.36488 -3.29789 
1 -0.452469 -3.1835 -2.57952 
1 -1.46112 -1.22951 -2.52746 
1 -2.82178 -2.84371 1.47424 
1 -2.38831 -1.12697 -1.93047 
1 2.20162 2.32731 -0.0335344 
1 -0.00910698 -1.34166 1.61216 
1 0.645057 0.362302 0.702953 
1 3.56788 1.36811 -1.23729 
1 1.95212 -0.82549 -2.53789 
1 -2.85278 0.438085 -2.39499 
1 -2.93064 1.49659 1.19915 
1 -3.21731 -0.468759 1.52306 
1 3.57127 -3.60669 -1.4272 
1 0.845211 2.255 0.835032 
1 1.41638 -1.92685 -3.40468 
1 -2.62967 -2.44058 -0.926173 
1 -2.72416 2.64799 -0.590575 
1 2.56961 -3.07527 0.840128 
1 -1.61781 1.86553 -2.1655 
1 1.25043 -2.90097 -3.01732 
1 2.54925 1.5609 0.630891 
1 1.97159 3.65695 1.77972 
1 0.364792 -1.56305 0.644296 
1 -0.54028 -0.141067 0.336608 
1 -3.09938 2.10086 0.302747 
1 -2.58984 3.35733 -2.3796 
1 0.943496 -3.73067 -2.37175 
1 -0.196316 2.24455 0.50443 
1 -3.5445 -2.28376 2.00983 
1 1.94942 -1.90045 2.24046 
1 -1.66769 2.78786 -0.705203 
1 3.3795 0.565181 2.76229 
1 3.6661 2.06585 1.19314 
1 -2.59735 2.3174 -2.12694 
1 1.81163 -0.121661 3.12239 
1 -3.14571 0.124746 -0.393105 
1 0.0136537 1.97653 -1.67655 
1 3.30625 2.18062 0.1396 
1 3.76258 3.3153 2.70228 
1 0.991999 -3.30552 1.49522 
1 0.455242 2.85723 -2.11296 
1 1.47067 2.80712 -2.76805 
1 0.0347151 2.17755 -0.526554 
1 3.61683 2.62746 -3.19598 
1 -2.55919 0.775303 -0.947904 
1 1.01776 1.18254 1.23639 
1 -3.27341 -3.54106 2.06689 
1 -3.18582 2.16063 2.09674 
1 1.93651 -2.97473 2.38846 
1 2.87522 -3.48135 -2.26863 
1 3.45831 0.654596 -0.494701 
1 3.28685 -2.79984 -3.04781 
1 -2.27169 -3.52272 3.37734 
1 -2.16106 2.12174 2.56136 
1 2.82286 2.62161 0.945212 
1 1.77988 -2.9183 -1.26545 
1 -1.43155 0.204288 0.698171 
1 3.68237 1.24859 1.95988 
1 -1.10868 -2.83894 0.0935001 
1 -3.17963 3.20661 0.480259 
1 -2.87993 0.998713 0.202624 
1 0.0093848 -2.24164 2.12916 
1 1.14504 -0.619689 -1.132 
1 2.94979 0.749174 1.25957 
1 -2.35204 -0.386013 2.18587 
1 1.47394 1.56726 0.281525 
1 -1.88737 -1.34804 2.14312 
1 2.01296 1.68729 3.47525 
1 3.55255 -1.41264 0.331368 
1 0.851025 1.44186 -0.655776 
1 -2.43684 -1.13021 3.14977 
1 3.45131 2.43401 3.26017 
1 -0.824923 -2.12249 1.10526 
1 -1.8462 -2.74291 -1.60911 
1 -3.00624 -0.229452 3.05558 
1 0.502852 -1.42649 -3.26996 
1 3.14544 -2.74295 -0.971409 
1 0.873403 0.421993 -0.952244 
1 -2.40193 -0.0390149 1.08543 
1 -3.11039 3.02846 -1.49614 
1 0.175002 0.531396 -3.55607 
1 2.13077 0.858315 2.80453 
1 1.49033 -0.840466 -3.53219 
1 -0.583273 -1.19363 3.60066 
1 0.354381 0.369322 -2.52253 
1 -0.859022 -1.26712 -0.838394 
1 0.0807302 -0.33903 1.25898 
1 3.13927 -3.43469 -0.123543 
1 -1.4548 3.6279 1.77795 
1 2.49109 -0.331806 -3.56224 
1 3.48767 -2.67359 -1.95664 
1 1.0942 3.08681 1.54956 
1 0.649829 3.30903 -0.293264 
1 -3.60344 -2.32364 0.935854 
1 0.988768 -3.66759 2.47044 
1 -1.43172 -3.53134 -2.17624 
1 1.72567 0.625267 0.621412 
1 -3.47778 1.55879 2.99545 
1 3.59673 -2.30993 2.98633 
1 -1.14639 1.41716 0.514658 
1 -0.561354 -0.614086 -2.31073 
1 2.45016 2.53939 2.90442 
1 -1.4163 2.1666 3.32379 
1 1.88815 1.80154 2.37512 
1 0.464723 -2.13831 3.25962 
1 2.87204 -0.512311 -0.0456207 
1 -1.30941 -0.74594 -1.60769 
1 2.84882 -3.43493 2.58963 
1 -1.85715 -1.70468 -1.24903 
1 2.7821 -1.70526 2.96569 
1 -3.6191 0.136648 -3.14146 
1 2.14576 -0.21928 -1.65316 
1 1.24664 -0.080964 -0.11952 
1 2.91422 3.35276 3.39971 
1 -1.08824 -2.13724 -3.53804 
1 0.0489807 -2.19018 -2.24935 
1 -3.62418 -1.26788 3.24279 
1 -3.40259 -3.08937 -0.542934 
1 -1.9745 -0.725816 -0.810159 
1 -2.83149 -1.40019 -0.950127 
1 -2.43774 3.60942 1.2517 
1 0.0706591 1.62191 1.32391 
1 -0.16919 1.21365 -0.89234 
1 0.318201 -2.47347 -3.2236 
1 0.984844 -1.79738 1.56157 
1 -0.379817 0.766634 0.854332 
1 -1.86343 0.868898 -0.108139 
1 -3.13807 -2.22035 -0.0107967 
1 -3.16486 -3.19489 0.487121 
1 1.84074 -3.77397 3.11325 
1 1.48727 -3.59457 -0.468222 
1 0.869518 0.123425 2.71843 
1 -1.75894 0.473594 -2.72765 
1 -1.69633 -1.89795 3.05359 
1 -1.83399 -3.16871 -0.630116 
1 0.326593 -3.52593 -3.25347 
1 -2.12144 2.96279 0.412671 
1 0.658606 1.12212 -1.7093 
1 0.961399 -2.60209 2.29661 
1 1.8116 -2.5539 1.38349 
1 -2.23747 -0.115162 0.0325873 
1 -2.91834 -0.408408 -1.30676 
1 1.75592 -0.621706 2.19446 
1 2.87851 -0.0020242 -2.60585 
1 -2.99738 2.57483 3.06674 
1 -1.83259 2.18871 -3.15825 
1 2.92985 1.57133 2.80579 
1 0.999128 1.94369 -2.29795 
1 -0.0117314 0.705272 2.88067 
1 -0.568054 -2.2579 3.03248 
1 -0.906333 2.09804 1.27491 
1 -0.067044 -1.31114 2.68863 
1 -0.106278 -2.37629 -0.776591 
1 0.438831 2.89904 -3.1788 
1 3.58076 1.20327 0.47401 
1 0.948418 1.94793 -3.38251 
1 0.0708231 1.56489 3.57838 
1 -0.0860296 0.32079 -1.45477 
1 -0.801714 -0.230831 -0.708992 
1 -2.12323 -2.50088 -3.50326 
1 -0.638921 3.40694 2.43459 
1 -2.26805 -2.10052 -2.35402 
1 -0.0245562 2.61491 1.71318 
1 -0.938901 2.51655 -2.70939 
1 -0.834436 0.739767 -0.208311 
1 1.94425 2.38867 -1.90202 
1 -1.95619 -2.25033 -0.112081 
1 1.56233 -2.87719 0.357865 
1 -3.02131 -1.29929 2.25453 
1 0.385363 -0.588792 0.24746 
1 -1.96819 0.112184 3.13161 
1 -1.69823 3.30236 -2.98307 
1 2.13025 -0.119581 1.25548 
1 3.62226 3.14099 -2.25587 
1 1.84824 0.189085 -2.72711 
1 -2.23627 -3.23557 2.32238 
1 -2.13414 3.62715 -1.35412 
1 -0.691665 -1.05005 0.869319 
1 0.918531 -0.515004 -2.73371 
1 2.56902 -2.71333 3.31093 
1 -0.368522 3.11183 -0.0982953 
1 -3.46623 0.462008 -1.45695 
1 -0.140978 3.47229 3.3907 
1 -3.39751 0.548949 1.18199 
1 -1.03271 3.55363 -1.12298 
1 -0.402142 -3.49086 0.486383 
1 2.02483 0.691505 -3.62719 
1 1.84412 -1.27523 3.10021 
1 -1.65454 1.52663 1.78152 
1 0.961438 2.37631 -1.29257 
1 1.56162 -1.81778 0.570231 
1 -2.9761 1.37983 -1.78741 
1 -3.37179 1.81773 -2.75162 
1 -3.08707 -2.99846 2.92673 
1 -1.59402 -0.643555 1.35169 
1 -1.98922 0.95113 -1.80244 
1 0.982576 -1.55188 2.58256 
1 2.6948 0.593291 0.227115 
1 2.88142 2.84805 -1.50664 
1 1.95935 -1.28334 1.3977 
1 -2.08581 -0.100707 -1.87773 
1 -2.53377 1.79125 3.58707 
1 -2.50088 3.67358 -0.286762 
1 -1.64729 3.04735 2.6564 
1 -3.46132 -3.39251 -2.54197 
1 -2.40559 1.36068 -2.7698 
1 1.52093 2.84559 2.5229 
1 0.120631 -3.51378 -1.74869 
1 1.19371 1.00365 -2.91208 
1 0.237935 0.617198 1.78981 
1 1.12668 2.3997 -0.229854 
1 2.51332 0.265967 -0.762602 
1 1.11539 0.119347 -3.56812 
1 2.60194 2.4835 -3.49104 
1 -2.51655 -1.53588 -3.218 
1 -0.471869 -3.00063 -3.69291 
1 -2.3338 -3.14675 -2.64247 
1 -2.76417 0.812136 3.13875 
1 -1.64753 0.291315 -0.980305 
1 3.08172 0.624134 -3.67869 
1 0.235018 3.62425 1.86858 
1 3.78895 -0.764383 -0.528777 
1 1.78754 1.17985 -1.92129 
1 -2.37812 -1.31752 0.00876542 
1 -2.93778 -3.09342 -1.68992 
1 2.8298 -0.963049 0.948915 
1 0.0993582 -1.44742 -0.371709 
1 0.151093 1.61676 2.38541 
1 1.80971 2.82149 0.815788 
1 -0.891578 -1.75416 0.0728703 
1 -0.826696 0.793672 3.66534 
1 -0.0341968 -0.499774 -3.2015 
1 -0.288637 -3.42467 -0.659811 
1 1.98084 -2.97259 -2.28615 
1 0.185852 -0.489034 -0.785359 
1 1.81882 1.82286 -0.932967 
1 2.6766 1.74322 -1.55515 
1 -1.04528 1.31499 -1.4762 
1 1.15177 -1.18314 -0.218476 
1 -1.7811 0.46885 1.82424 
1 1.24181 3.63519 0.569174 
1 -1.39427 -0.730463 2.95443 
1 2.50558 -2.13981 -1.60828 
1 3.62716 0.922869 -2.4003 
1 2.9035 -1.39743 1.96573 
1 -2.09673 -3.16677 0.531166 
1 2.72312 1.44922 -0.479357 
1 0.993019 -2.64113 -1.96922 
1 3.18876 -2.39358 0.0915607 
1 -0.715741 -2.88131 -1.59136 
1 -0.77273 1.46951 2.87171 
1 3.63542 -0.622427 2.39833 
1 -1.66555 -1.54516 0.743085 
1 2.54073 3.07967 -2.61566 
1 3.40142 -3.12088 1.52383 
1 -0.491659 -1.53914 -2.86557 
1 -1.03823 0.358218 2.623 
1 -3.25989 -2.2602 -2.87222 
1 -1.39324 -0.15987 -3.49341 
1 -3.08028 -0.701951 -3.4828 
1 -1.1798 3.52483 3.45886 
1 1.03472 3.45373 -1.27815 
1 -3.07343 -0.700634 0.432458 
1 -1.39852 -3.22007 -3.2354 
1 2.32028 -2.41893 -3.16318 
1 0.713781 -0.709289 2.06249 
1 2.5969 1.03325 -2.74462 
1 -2.52041 -2.21421 2.3905 
1 1.86433 -1.26757 -1.55808 
1 -2.74519 2.56965 1.20011 
1 2.03764 -0.697406 -0.628993 
2 1.67399 0.0706854 -0.932443 
2 0.414669 -3.01158 -2.51399 
2 -0.901384 -0.797816 -3.12782 
2 3.65632 -0.696404 0.881978 
2 2.4719 3.40579 1.08997 
2 -3.29884 3.28511 -2.92345 
2 1.88249 3.69299 -2.67227 
2 -0.278505 1.12439 -3.12124 
2 -1.60718 -1.48711 -0.412156 
2 1.74916 -3.38291 1.02715 
2 -1.26632 2.78268 -3.5245 
2 -0.730211 1.86419 -2.16316 
2 0.184465 -2.65875 -1.54853 
2 2.66074 0.164431 3.13711 
2 -3.12836 -1.56525 0.713116 
2 -3.50985 0.419271 3.45982 
2 -2.47065 3.5863 -3.29382 
2 1.31432 -0.675256 -1.97108 
2 1.37003 -0.134079 0.76219 
2 -1.40442 0.0785594 -0.162094 
2 -1.60572 3.56269 0.897671 
2 2.2548 1.05427 -1.14512 
2 2.10526 -0.000435691 -0.0101697 
2 -0.701682 -3.66716 1.60922 
2 2.73429 -2.52342 -2.39367 
2 1.28708 -1.29822 -2.82979 
2 2.99542 -1.07077 3.56365 
2 2.59617 -3.01202 -1.59945 
2 -0.520377 -0.904656 -0.0842961 
2 1.64853 3.08579 -0.0421105 
2 0.653334 2.9448 2.32438 
2 -3.3778 2.02434 -3.6737 
2 1.60177 -2.11418 -1.56815 
2 -1.23756 1.0094 -2.26751 
2 -3.01603 2.16322 -1.32799 
2 -0.817732 0.585921 -1.06205 
2 -2.9794 0.174119 0.477229 
2 -2.36887 0.462455 2.45386 
2 2.72346 -2.06577 -0.639907 
2 3.34573 -1.89046 -1.56994 
2 -1.73306 -1.88367 -3.02111 
2 3.43834 -3.05657 0.633411 
2 -1.46687 -0.2861 2.1727 
2 2.28864 -2.34248 0.415658 
2 2.19524 -1.94813 3.57083 
2 0.901112 -2.12234 -2.67735 
2 -1.23631 0.883532 1.23291 
2 -1.40733 -0.314347 -2.4623 
2 -0.72323 -3.36702 3.01398 
2 2.80704 0.965963 2.15858 
2 0.192014 -1.06717 -2.51368 
2 1.29945 2.96238 -1.9303 
2 -2.62306 0.663617 1.5592 
2 -2.27634 2.75392 -1.37474 
2 -2.58732 -2.90637 -0.163861 
2 -2.38833 1.98006 1.71628 
2 -1.60961 -2.4282 0.708038 
2 -3.42764 -3.64765 1.18496 
2 -1.51425 -3.59298 2.64049 
2 0.139706 3.53551 -2.55055 
2 -3.49032 -2.56553 -1.21962 
2 -2.29022 -2.65942 3.1145 
2 3.60099 1.53106 -0.362063 
2 1.02348 -1.45124 3.45454 
2 -2.77042 -0.654137 -0.442434 
2 -2.83131 -0.442272 -2.23577 
2 0.396917 2.40773 3.56276 
2 -2.10773 -0.750031 0.627158 
2 0.454265 1.27644 -2.54952 
2 3.59663 -3.00338 2.43593 
2 -0.508979 -2.41325 -2.9394 
2 -0.415157 1.52896 -0.0399751 
2 -3.06515 -3.70416 -1.05562 
2 3.60515 -1.57306 2.45125 
2 -0.205722 -1.93894 -3.66938 
2 -2.01393 -3.1583 1.44438 
2 0.393929 -3.41444 0.869635 
2 1.42944 -2.70118 -0.49726 
2 -2.20621 -0.510111 3.73062 
2 -2.83226 3.5803 2.87205 
2 2.63315 2.28311 -0.831962 
2 -1.72902 1.17362 -0.927933 
2 0.0505388 -2.12924 1.23618 
2 -3.412 -1.52942 -3.38364 
2 0.988218 0.783007 -0.00849891 
2 -3.22868 -1.39607 -0.183289 
2 -0.84503 2.81353 3.05356 
2 -1.26614 -1.45624 1.49535 
2 2.54583 -0.648348 1.79224 
2 -0.428354 -0.568499 -1.43629 
2 -0.792866 1.68881 3.71678 
2 2.52182 -3.19826 1.73857 
2 2.42554 3.30439 2.46399 
2 2.82187 -0.0986391 0.742828 
2 1.67177 0.283611 2.31701 
2 -1.66803 -2.53305 2.40283 
2 -0.937792 -1.46246 2.83727 
2 -0.798783 2.55747 -0.592858 
2 -2.85574 -1.94907 1.58396 
2 -3.61247 -2.51381 -3.67181 
