ITEM: TIMESTEP
1078
ITEM: NUMBER OF ATOMS
500
ITEM: BOX BOUNDS xy xz yz pp pp pp
-3.7345 3.86894 0.134442
-3.7345 3.7345 0
-3.7345 3.7345 0
ITEM: ATOMS type xu yu zu 
1 3.2959 -1.87738 -3.56899 
1 -1.68034 -1.21468 -3.55176 
1 -2.89535 -2.044 3.5253 
1 2.81948 -1.27594 -1.08164 
1 0.938223 1.82148 3.11139 
1 3.14087 2.72769 2.14499 
1 2.71552 -0.619515 2.78021 
1 -0.422089 3.23226 -2.0362 
1 2.86082 0.550779 -1.80789 
1 -3.19544 1.52768 -0.756781 
1 0.670733 -3.08922 3.35712 
1 0.74375 -2.99984 -0.875274 
1 -1.23651 2.49343 0.295594 
1 -0.902796 -2.00262 2.09643 
1 -2.47405 0.279806 -3.48496 
1 -2.48354 -1.1829 1.24922 
1 -1.39211 -2.90458 3.14224 
1 -0.734722 0.206257 -2.80949 
1 1.15343 -0.836391 1.09356 
1 0.372577 -0.691368 -1.81687 
1 1.54235 3.59657 -3.45126 
1 3.58976 2.32329 -0.73659 
1 -2.22973 1.98291 0.796314 
1 -1.33924 -0.826628 0.0255735 
1 3.76589 2.1722 -1.80622 
1 2.8454 3.07565 -0.315463 
1 1.08648 0.150834 1.55968 
1 1.71362 -2.84631 3.43438 
1 -0.550348 3.33258 -3.19488 
1 3.21018 -0.265078 -1.22012 
1 0.87632 -2.22337 -0.0919631 
1 -2.31855 0.914922 1.00299 
1 0.0124512 -1.59302 -1.44142 
1 1.04838 1.01222 2.33585 
1 2.09778 2.05141 -2.89765 
1 1.89891 -0.718425 0.38075 
1 2.57224 -1.493 0.0191155 
1 1.84957 -1.8463 -2.48672 
1 -3.30435 0.371828 2.28322 
1 -0.723035 3.16959 1.00697 
1 -1.78152 -2.34911 1.54466 
1 -3.16313 -1.95667 -1.82479 
1 -2.70427 1.20557 2.07429 
1 -3.23131 1.08058 -3.48603 
1 2.67028 1.78874 1.67811 
1 0.937262 -1.9758 -1.13575 
1 0.466726 -0.653839 3.38014 
1 -0.92242 -0.830466 2.09107 
1 3.77385 -0.173086 -2.15143 
1 3.27096 -0.188164 1.55612 
1 -0.874612 0.1988 1.6312 
1 0.650865 -3.22781 0.175282 
1 -1.27032 1.80178 -0.481605 
1 -0.345237 0.975206 -2.0518 
1 -2.23588 -0.501813 -2.81084 
1 3.52928 -0.267026 3.39204 
1 -0.935837 -1.80469 -1.83317 
1 3.34152 1.66392 -3.60134 
1 -0.0344261 -3.14917 2.53965 
1 -1.25634 -2.55071 -2.5266 
1 -3.01485 3.44354 3.67481 
1 -1.05136 0.210659 -1.80656 
1 -3.28663 -1.11462 -2.53492 
1 2.14864 3.60905 -1.88716 
1 -0.878357 2.26367 2.31793 
1 2.05058 2.96281 -1.01123 
1 0.903112 2.05452 1.99493 
1 -2.08614 1.94539 -1.24869 
1 1.11334 0.78252 3.412 
1 1.89613 0.947002 1.66498 
1 3.11467 2.13033 -2.636 
1 -0.0674938 -2.44949 0.389112 
1 -1.04414 -3.05908 2.15865 
1 3.67722 -1.82594 -0.756273 
1 1.68354 1.98831 1.28408 
1 1.73555 0.948934 -0.46409 
1 3.28718 3.25972 0.658959 
1 -2.6271 3.0271 2.17842 
1 2.44434 0.143955 2.12906 
1 1.15222 0.0902213 -1.99163 
1 -2.30063 1.8361 -0.227088 
1 0.109964 0.328762 -0.313788 
1 -0.150685 -0.199972 2.3755 
1 -1.25131 3.53069 0.0365397 
1 -1.86025 2.65756 1.51762 
1 3.46372 3.55706 -3.30369 
1 -1.72694 1.03979 -3.63788 
1 2.11625 2.72305 1.91021 
1 -0.561495 -0.258933 3.35145 
1 0.000263698 2.97967 -1.09782 
1 -0.874199 2.35442 -1.37683 
1 -1.18803 -3.16657 1.06742 
1 3.58726 -3.29363 3.33473 
1 0.902681 -1.5671 -2.12891 
1 3.40185 -0.867157 -3.16971 
1 3.6316 0.116311 0.461869 
1 -3.67533 3.32171 1.59419 
1 0.464706 3.21197 0.708262 
1 0.0816459 2.47768 2.86614 
1 0.117367 1.72347 -2.65152 
1 -2.04045 2.95931 3.55792 
1 -3.61392 3.35643 -0.647473 
1 2.27486 3.5985 0.481468 
1 -2.60508 2.62037 -3.11992 
1 -2.45231 -2.16119 0.745034 
1 -1.61236 2.87871 -1.91522 
1 2.87369 -0.794512 -2.13271 
1 2.71591 3.57441 1.49849 
1 -1.16321 -2.36588 -0.879769 
1 1.88328 -1.92625 -0.677864 
1 2.36405 -2.79364 -0.321139 
1 1.7527 2.58117 3.71441 
1 3.2061 -1.73699 -2.48768 
1 2.5655 -3.60619 -0.994161 
1 2.99066 -2.35487 2.15066 
1 2.90207 -1.98595 1.08284 
1 0.810055 2.95841 3.54688 
1 -0.480499 2.29632 -3.67267 
1 -0.822441 1.23449 1.94605 
1 -2.98613 -3.07122 -3.42068 
1 -3.69717 -1.09197 -1.56132 
1 -1.66305 1.23034 2.73798 
1 -3.63214 -1.33844 1.39313 
1 2.3919 -3.46657 -3.47484 
1 -0.218057 -2.91621 1.49076 
1 0.830977 -2.54891 0.981348 
1 0.253756 1.35826 0.163392 
1 -0.890934 1.37014 -2.87677 
1 2.39851 -1.38763 -3.29067 
1 -0.414024 -3.28351 -2.61203 
1 -1.52973 -1.21341 -2.49831 
1 -2.77024 -2.8438 1.42634 
1 -2.42984 -1.09564 -1.90416 
1 2.08615 2.3268 -0.126716 
1 -0.172551 -1.38794 1.5983 
1 0.546406 0.413832 0.650553 
1 3.28739 1.41713 -1.27114 
1 1.89428 -0.742472 -2.56796 
1 -2.81446 0.470111 -2.39977 
1 -3.14265 1.62651 1.19274 
1 -3.16886 -0.388194 1.5189 
1 3.53753 -3.58331 -1.55036 
1 0.720306 2.21213 0.951607 
1 1.41985 -1.9525 -3.51412 
1 -2.60182 -2.4434 -0.983062 
1 -2.82205 2.6497 -0.627122 
1 2.68076 -3.00708 0.808605 
1 -1.52383 1.84221 -2.15923 
1 1.29409 -2.90907 -3.04065 
1 2.3782 1.54405 0.641199 
1 1.78802 3.73558 1.95881 
1 0.506382 -1.57197 0.743514 
1 -0.586138 -0.135147 0.333632 
1 -3.26097 2.14485 0.237554 
1 -2.53056 3.37925 -2.37042 
1 1.04157 -3.69889 -2.38717 
1 -0.229237 2.27765 0.528897 
1 -3.42841 -2.22887 1.97103 
1 2.00858 -1.81944 2.34475 
1 -1.76628 2.81644 -0.658465 
1 3.22979 0.547708 2.68098 
1 3.50669 2.30543 1.21705 
1 -2.54421 2.31719 -2.11527 
1 1.79831 -0.131084 3.05645 
1 -3.12967 0.142234 -0.305922 
1 0.14961 1.99594 -1.5969 
1 3.14294 2.23305 0.218249 
1 3.92342 3.3014 2.70802 
1 0.816861 -3.08313 1.86103 
1 0.624588 2.91007 -1.9726 
1 1.38655 2.80724 -2.7293 
1 -0.237093 2.08463 -0.532582 
1 3.85429 2.60894 -3.42005 
1 -2.58597 0.709149 -0.978494 
1 0.947507 1.19944 1.24541 
1 -3.1789 -3.48706 2.09592 
1 -3.32303 2.19108 2.14799 
1 2.10989 -2.91943 2.42765 
1 2.85749 -3.46381 -2.41182 
1 3.49137 0.75543 -0.422949 
1 3.29355 -2.84717 -3.14797 
1 -2.20957 -3.47824 3.42471 
1 -2.23665 2.08414 2.51602 
1 2.47176 2.61581 0.920531 
1 1.78386 -2.91027 -1.2348 
1 -1.44873 0.345243 0.679316 
1 3.57389 1.2753 1.92468 
1 -1.04675 -2.90825 0.0420351 
1 -3.1906 3.27054 0.352192 
1 -3.04292 1.06312 0.218347 
1 0.209855 -2.18275 2.17527 
1 1.1589 -0.538024 -1.13958 
1 2.86478 0.737185 1.28815 
1 -2.26923 -0.430267 2.19113 
1 1.32466 1.64688 0.259183 
1 -1.80875 -1.41056 2.07336 
1 2.20926 1.60908 3.58851 
1 3.58617 -1.3783 0.355335 
1 0.879755 1.56207 -0.755248 
1 -2.44753 -1.17088 3.11103 
1 3.49854 2.37658 3.07614 
1 -0.803121 -2.15637 1.06145 
1 -1.80282 -2.82127 -1.61035 
1 -2.88522 -0.173325 3.07216 
1 0.469144 -1.5287 -3.17187 
1 3.16878 -2.72528 -1.00946 
1 0.87202 0.525594 -1.01924 
1 -2.25298 -0.142314 1.12344 
1 -3.13866 3.03037 -1.56723 
1 0.230255 0.287309 -3.55008 
1 2.09434 0.847514 2.81881 
1 1.44483 -0.615161 -3.53759 
1 -0.680958 -1.28118 3.57629 
1 0.250567 0.240254 -2.48757 
1 -0.816873 -1.32288 -0.836075 
1 -0.0304538 -0.338593 1.24626 
1 3.1794 -3.4258 -0.0668886 
1 -1.42032 3.58081 1.74341 
1 2.51841 -0.401536 -3.63601 
1 3.49926 -2.64191 -2.01706 
1 1.13524 2.98085 1.58138 
1 0.710289 3.41586 -0.436304 
1 -3.52784 -2.27426 0.90428 
1 0.751815 -3.85548 2.62478 
1 -1.3836 -3.60022 -2.18335 
1 1.63095 0.683197 0.562262 
1 -3.54276 1.38006 2.94488 
1 3.70107 -2.25544 2.95936 
1 -1.35698 1.42822 0.567034 
1 -0.57995 -0.708975 -2.27502 
1 2.41803 2.54003 2.897 
1 -1.42398 2.17903 3.24262 
1 1.85222 1.77187 2.39563 
1 0.48645 -1.98402 3.31643 
1 2.88016 -0.414991 -0.0449633 
1 -1.32197 -0.783115 -1.57287 
1 3.02707 -3.47335 2.37298 
1 -1.85936 -1.70516 -1.27019 
1 2.85838 -1.65462 2.9566 
1 -3.48364 0.107911 -3.17607 
1 2.11542 -0.236722 -1.60248 
1 1.20381 -0.0353516 -0.178694 
1 2.97819 3.38213 3.20997 
1 -1.0806 -2.2257 -3.54951 
1 0.0490115 -2.25838 -2.29535 
1 -3.58422 -1.25545 3.23869 
1 -3.39629 -3.08597 -0.591445 
1 -2.00091 -0.706006 -0.816648 
1 -2.83701 -1.37962 -0.952294 
1 -2.37856 3.60072 1.25241 
1 -0.036307 1.58134 1.29973 
1 -0.0829443 1.13545 -0.978061 
1 0.320122 -2.56409 -3.26179 
1 1.07299 -1.76965 1.68479 
1 -0.494901 0.812916 0.796298 
1 -1.99208 0.856365 -0.0730425 
1 -3.08874 -2.21731 -0.0671477 
1 -3.10633 -3.16401 0.437168 
1 1.80605 -3.87841 3.01996 
1 1.58374 -3.63106 -0.389447 
1 0.861445 0.000217443 2.62736 
1 -1.7429 0.486195 -2.69147 
1 -1.63839 -1.87686 3.07418 
1 -1.80741 -3.22129 -0.633757 
1 0.368373 -3.6605 -3.2641 
1 -2.15749 2.99248 0.399735 
1 0.708491 1.09545 -1.9362 
1 1.16647 -2.42629 2.61555 
1 1.93469 -2.46935 1.43213 
1 -2.194 -0.15512 0.0579739 
1 -2.97125 -0.339663 -1.27305 
1 1.68404 -0.629416 2.11287 
1 3.00294 0.0860391 -2.82515 
1 -2.94085 2.55106 3.13177 
1 -1.62497 2.11723 -3.18538 
1 2.88876 1.57889 2.74606 
1 1.28664 2.03047 -1.97771 
1 0.106337 0.688546 2.94351 
1 -0.510356 -2.2571 3.03032 
1 -0.964066 2.12228 1.27369 
1 -0.085674 -1.26761 2.68033 
1 -0.126567 -2.40751 -0.715072 
1 0.310168 2.72926 -2.99573 
1 3.45771 1.29266 0.607521 
1 1.03769 1.89099 -3.25351 
1 0.167008 1.36226 3.81075 
1 -0.0524667 0.15767 -1.426 
1 -0.789229 -0.261161 -0.741345 
1 -2.08567 -2.50362 -3.45163 
1 -0.586795 3.35058 2.37861 
1 -2.18798 -2.09804 -2.25169 
1 -0.0392982 2.57142 1.69335 
1 -0.757744 2.43556 -2.63542 
1 -0.884695 0.808569 -0.231174 
1 2.27309 2.53555 -1.95571 
1 -1.93448 -2.28082 -0.151698 
1 1.66991 -2.86885 0.437988 
1 -2.96279 -1.27998 2.20379 
1 0.400314 -0.596778 0.290163 
1 -1.8442 0.200037 3.08258 
1 -1.63012 3.19195 -2.94285 
1 2.056 -0.0654609 1.17528 
1 3.60057 3.06841 -2.37709 
1 2.06004 0.312835 -2.5039 
1 -2.15917 -3.17106 2.30251 
1 -2.12614 3.65987 -1.40145 
1 -0.510082 -1.15973 0.653624 
1 0.803247 -0.631854 -2.73668 
1 2.75424 -2.67774 3.26596 
1 -0.285686 3.11626 -0.0853018 
1 -3.55598 0.564683 -1.40277 
1 -0.0519544 3.45511 3.29132 
1 -3.40273 0.6179 1.23515 
1 -1.01922 3.4524 -1.10806 
1 -0.333089 -3.47917 0.543258 
1 2.08104 0.557836 -3.59858 
1 1.9367 -1.212 3.23899 
1 -1.78397 1.58337 1.68071 
1 1.06208 2.57099 -1.07095 
1 1.62295 -1.791 0.530266 
1 -2.9813 1.38005 -1.81362 
1 -3.30627 1.85727 -2.76471 
1 -2.98871 -2.95415 2.95919 
1 -1.3079 -0.622288 1.12263 
1 -1.99533 0.977373 -1.78088 
1 1.05398 -1.34274 2.70479 
1 2.66039 0.610948 0.246711 
1 3.08817 2.95977 -1.41824 
1 2.03342 -1.3503 1.39413 
1 -2.08684 -0.0848229 -1.81641 
1 -2.42531 1.81333 3.64802 
1 -2.50476 3.6559 -0.378595 
1 -1.63189 2.98307 2.57854 
1 -3.49803 -3.44465 -2.56926 
1 -2.33879 1.39482 -2.77653 
1 1.37791 2.70579 2.67485 
1 0.212929 -3.46311 -1.73881 
1 1.5504 1.20593 -2.60256 
1 0.137985 0.628494 1.7675 
1 0.67607 2.42657 -0.0894406 
1 2.52083 0.353724 -0.771155 
1 1.16357 0.328054 -3.07079 
1 2.80274 2.56642 -3.58503 
1 -2.5153 -1.56924 -3.07298 
1 -0.464595 -3.08888 -3.72377 
1 -2.2742 -3.13663 -2.60496 
1 -2.63293 0.916196 3.12844 
1 -1.6143 0.340835 -0.927551 
1 3.17643 0.649125 -3.74193 
1 0.268956 3.57609 1.71769 
1 3.79683 -0.74607 -0.502307 
1 1.75204 0.833709 -1.54876 
1 -2.36538 -1.33147 0.0137349 
1 -2.96075 -3.06299 -1.74887 
1 2.83382 -0.902009 0.917419 
1 0.0734557 -1.52846 -0.215749 
1 0.102018 1.55383 2.34509 
1 1.47257 2.86165 0.537305 
1 -0.93755 -1.87514 0.0311249 
1 -0.72878 0.72788 3.74173 
1 -0.141937 -0.648926 -3.20589 
1 -0.319085 -3.44629 -0.676796 
1 1.99798 -2.85799 -2.25617 
1 0.190952 -0.658808 -0.763019 
1 1.92951 1.86165 -1.09062 
1 2.45554 1.51582 -1.97132 
1 -1.07705 1.28641 -1.36113 
1 1.13539 -1.1834 -0.270599 
1 -1.8338 0.531806 1.9121 
1 1.31801 3.82854 0.985541 
1 -1.47163 -0.764332 2.98193 
1 2.52631 -2.15077 -1.64532 
1 3.65282 0.947427 -2.46145 
1 2.94812 -1.28983 1.95705 
1 -2.06092 -3.19624 0.486322 
1 2.70445 1.49224 -0.395153 
1 0.986846 -2.6786 -1.97373 
1 3.24947 -2.36163 0.0743356 
1 -0.641058 -2.85994 -1.64402 
1 -0.638376 1.50518 3.04477 
1 3.71461 -0.620421 2.40385 
1 -1.61141 -1.56442 0.768087 
1 2.44388 3.1486 -2.81038 
1 3.49942 -3.05661 1.50366 
1 -0.590539 -1.61825 -2.8621 
1 -0.914454 0.481006 2.67635 
1 -3.33706 -2.23206 -2.86327 
1 -1.4341 -0.181584 -3.48198 
1 -2.98335 -0.740206 -3.522 
1 -1.11518 3.48839 3.37895 
1 1.25008 3.60538 -1.33575 
1 -3.05068 -0.666912 0.450085 
1 -1.41005 -3.31014 -3.26659 
1 2.32347 -2.44683 -3.2191 
1 0.609004 -0.787621 1.96361 
1 2.67479 1.13432 -2.92366 
1 -2.47033 -2.16911 2.45017 
1 1.82946 -1.29105 -1.55829 
1 -2.93031 2.67867 1.195 
1 2.05877 -0.661588 -0.643227 
2 1.67466 0.159138 -0.930587 
2 0.445423 -3.05836 -2.55054 
2 -0.986858 -0.856861 -3.11273 
2 3.67084 -0.639474 0.898405 
2 1.91864 3.22727 1.22296 
2 -3.21084 3.24816 -2.95069 
2 1.99641 3.90381 -2.7449 
2 -0.179047 0.874263 -2.97658 
2 -1.61145 -1.50902 -0.451657 
2 1.95146 -3.31946 1.18437 
2 -1.20044 2.77965 -3.57794 
2 -0.632096 1.79345 -2.04127 
2 0.251336 -2.55343 -1.49268 
2 2.61149 0.192626 3.18374 
2 -3.07162 -1.53525 0.704564 
2 -3.47688 0.518169 3.25299 
2 -2.33844 3.65102 -3.23622 
2 1.2515 -0.778045 -1.97994 
2 1.28263 -0.0952666 0.691545 
2 -1.35244 0.052286 -0.137536 
2 -1.56081 3.51528 0.869226 
2 2.46203 1.13612 -1.15905 
2 2.0662 0.0483283 -0.0435854 
2 -0.7001 -3.66273 1.60505 
2 2.7701 -2.51157 -2.47063 
2 1.31611 -1.30447 -2.93321 
2 3.04291 -1.04124 3.52816 
2 2.64949 -3.03925 -1.66334 
2 -0.456708 -0.840844 -0.169321 
2 1.45322 2.93944 -0.349406 
2 0.579599 2.87185 2.25586 
2 -3.30844 1.90335 -3.84119 
2 1.63176 -2.1513 -1.67836 
2 -1.22001 0.982921 -2.1811 
2 -2.96753 2.14655 -1.33844 
2 -0.741773 0.548948 -1.05351 
2 -2.88554 0.22758 0.584098 
2 -2.45613 0.370864 2.50182 
2 2.7739 -2.0456 -0.645724 
2 3.36237 -1.87603 -1.58718 
2 -1.67033 -1.90778 -2.97816 
2 3.53087 -3.00729 0.622496 
2 -1.43245 -0.143216 2.32445 
2 2.37257 -2.27624 0.407725 
2 2.2016 -2.01517 3.48604 
2 0.930673 -2.17664 -2.74066 
2 -1.31678 0.930985 1.2977 
2 -1.41828 -0.320796 -2.42474 
2 -0.722416 -3.41333 2.95753 
2 2.67443 1.0024 2.12036 
2 0.0855691 -1.3228 -2.37416 
2 1.50267 2.92457 -1.8244 
2 -2.67896 0.397834 1.63907 
2 -2.30734 2.80142 -1.37007 
2 -2.5598 -2.92763 -0.22757 
2 -2.53782 2.05578 1.68457 
2 -1.56485 -2.45169 0.653982 
2 -3.31708 -3.54925 1.18926 
2 -1.52329 -3.65306 2.61505 
2 0.27625 3.5009 -2.49535 
2 -3.47529 -2.52633 -1.24948 
2 -2.21582 -2.60187 3.16209 
2 3.59541 1.60592 -0.207846 
2 1.00791 -1.2992 3.58585 
2 -2.77318 -0.641527 -0.423698 
2 -2.85396 -0.388787 -2.18123 
2 0.383485 2.2138 3.702 
2 -2.01633 -0.8019 0.607915 
2 0.71412 1.08986 -2.90457 
2 3.70135 -2.92732 2.41535 
2 -0.499493 -2.50435 -2.95752 
2 -0.613857 1.58703 0.119554 
2 -3.10825 -3.69913 -1.13975 
2 3.65412 -1.54473 2.41404 
2 -0.211286 -1.95565 -3.62488 
2 -1.97794 -3.19002 1.4178 
2 0.381985 -3.34332 1.03788 
2 1.48597 -2.73551 -0.43025 
2 -2.17402 -0.485253 3.60251 
2 -2.67831 3.62346 2.85382 
2 2.68654 2.31973 -0.820831 
2 -1.82694 1.19967 -0.873027 
2 0.0895179 -2.14622 1.25471 
2 -3.39455 -1.50252 -3.36877 
2 0.92037 0.820859 -0.110546 
2 -3.22024 -1.3906 -0.18259 
2 -0.744693 2.76209 3.04726 
2 -1.07888 -1.41651 1.45392 
2 2.47955 -0.617893 1.69561 
2 -0.424415 -0.741738 -1.40397 
2 -1.05759 1.61092 3.79094 
2 2.63292 -3.01713 1.7075 
2 2.52967 3.35568 2.38488 
2 2.83693 -0.0396459 0.794324 
2 1.606 0.310405 2.27013 
2 -1.62306 -2.44164 2.40371 
2 -0.949712 -1.44041 2.75188 
2 -0.904408 2.68561 -0.541835 
2 -2.6471 -1.96851 1.60437 
2 -3.59257 -2.52982 -3.7105 
