ITEM: TIMESTEP
1106
ITEM: NUMBER OF ATOMS
500
ITEM: BOX BOUNDS xy xz yz pp pp pp
-3.7345 3.87641 0.141911
-3.7345 3.7345 0
-3.7345 3.7345 0
ITEM: ATOMS type xu yu zu 
1 3.29815 -1.8768 -3.56891 
1 -1.67859 -1.21525 -3.55104 
1 -2.89388 -2.044 3.5258 
1 2.82193 -1.27499 -1.08214 
1 0.944846 1.82095 3.11172 
1 3.14763 2.72831 2.14503 
1 2.71921 -0.618301 2.78025 
1 -0.414144 3.23065 -2.03688 
1 2.86544 0.551122 -1.80833 
1 -3.19078 1.52765 -0.75744 
1 0.672562 -3.08939 3.3579 
1 0.744916 -3.00045 -0.874391 
1 -1.23052 2.49346 0.295515 
1 -0.901298 -2.00364 2.09664 
1 -2.46937 0.27978 -3.48462 
1 -2.48053 -1.18267 1.24926 
1 -1.39125 -2.90497 3.14265 
1 -0.730314 0.206565 -2.80926 
1 1.1561 -0.836457 1.0936 
1 0.37548 -0.692295 -1.81736 
1 1.5507 3.59518 -3.45081 
1 3.59602 2.32418 -0.736055 
1 -2.22459 1.98353 0.795483 
1 -1.3362 -0.826735 0.0251932 
1 3.77175 2.17258 -1.80551 
1 2.85262 3.07616 -0.31522 
1 1.09116 0.150677 1.5593 
1 1.71505 -2.84574 3.4339 
1 -0.543296 3.33187 -3.19495 
1 3.21431 -0.264073 -1.22017 
1 0.877943 -2.22368 -0.0910277 
1 -2.31418 0.915306 1.00251 
1 0.0160739 -1.59381 -1.44026 
1 1.0534 1.01261 2.33534 
1 2.10356 2.051 -2.89717 
1 1.90163 -0.719244 0.381019 
1 2.57479 -1.49316 0.0198101 
1 1.8535 -1.84491 -2.48717 
1 -3.29893 0.372514 2.28335 
1 -0.715989 3.16962 1.00636 
1 -1.78043 -2.34897 1.54499 
1 -3.16208 -1.95647 -1.82483 
1 -2.69891 1.20619 2.07422 
1 -3.22525 1.08166 -3.48545 
1 2.67611 1.78881 1.67747 
1 0.940444 -1.97766 -1.13524 
1 0.469474 -0.651881 3.3786 
1 -0.920633 -0.830339 2.09175 
1 3.77759 -0.171807 -2.15179 
1 3.27422 -0.18922 1.55653 
1 -0.870145 0.198378 1.6305 
1 0.651283 -3.22805 0.176131 
1 -1.26481 1.80193 -0.481573 
1 -0.340862 0.975211 -2.05147 
1 -2.23212 -0.502309 -2.81076 
1 3.5325 -0.266166 3.39274 
1 -0.932006 -1.80517 -1.8325 
1 3.34814 1.66496 -3.59989 
1 -0.0342555 -3.14813 2.54142 
1 -1.25493 -2.55074 -2.52567 
1 -3.0077 3.44402 3.67432 
1 -1.04712 0.21001 -1.8066 
1 -3.28449 -1.11408 -2.53474 
1 2.15712 3.6099 -1.88677 
1 -0.871954 2.26372 2.31771 
1 2.05816 2.9632 -1.01104 
1 0.908215 2.05463 1.99524 
1 -2.07991 1.94576 -1.2489 
1 1.11755 0.780856 3.41091 
1 1.90104 0.947366 1.66404 
1 3.12015 2.13052 -2.63511 
1 -0.0660339 -2.44939 0.389927 
1 -1.04392 -3.05992 2.15907 
1 3.67947 -1.82576 -0.756567 
1 1.6889 1.98885 1.28451 
1 1.73952 0.949339 -0.46455 
1 3.29395 3.25928 0.659338 
1 -2.62096 3.02723 2.17768 
1 2.44761 0.144095 2.12837 
1 1.15647 0.0899459 -1.99209 
1 -2.29557 1.83545 -0.227835 
1 0.113972 0.328419 -0.313975 
1 -0.147234 -0.200584 2.3746 
1 -1.24397 3.53025 0.0362475 
1 -1.85431 2.65765 1.51707 
1 3.47117 3.55756 -3.30425 
1 -1.722 1.03959 -3.63759 
1 2.12304 2.72318 1.9105 
1 -0.559043 -0.259686 3.35007 
1 0.00708778 2.97953 -1.09763 
1 -0.868492 2.35432 -1.37627 
1 -1.18768 -3.1663 1.06794 
1 3.58732 -3.29324 3.33414 
1 0.905668 -1.56844 -2.12841 
1 3.40452 -0.866545 -3.16984 
1 3.63556 0.116811 0.461522 
1 -3.66865 3.32299 1.59451 
1 0.471717 3.21237 0.709241 
1 0.0884947 2.47704 2.86609 
1 0.121552 1.72262 -2.65221 
1 -2.03396 2.95933 3.55778 
1 -3.60714 3.35726 -0.648842 
1 2.2817 3.59828 0.481789 
1 -2.59854 2.62042 -3.12006 
1 -2.45043 -2.16109 0.745168 
1 -1.60583 2.87834 -1.91587 
1 2.87718 -0.7921 -2.13392 
1 2.72261 3.57452 1.49872 
1 -1.16164 -2.36642 -0.879573 
1 1.88587 -1.92539 -0.677124 
1 2.36557 -2.79301 -0.32068 
1 1.75878 2.57891 3.71416 
1 3.20674 -1.73601 -2.48771 
1 2.5661 -3.60541 -0.993702 
1 2.99136 -2.3548 2.1514 
1 2.90439 -1.98668 1.08339 
1 0.816896 2.95768 3.54776 
1 -0.474429 2.29529 -3.67289 
1 -0.817302 1.23442 1.94565 
1 -2.98561 -3.07133 -3.41979 
1 -3.6948 -1.09138 -1.5614 
1 -1.65869 1.23009 2.73777 
1 -3.62946 -1.33772 1.39285 
1 2.39207 -3.46623 -3.47496 
1 -0.217952 -2.91594 1.49213 
1 0.832352 -2.54906 0.982288 
1 0.259242 1.35825 0.163626 
1 -0.886705 1.36928 -2.87697 
1 2.40061 -1.38701 -3.29206 
1 -0.413333 -3.28455 -2.61202 
1 -1.52708 -1.21482 -2.49753 
1 -2.7695 -2.84331 1.42663 
1 -2.42746 -1.09594 -1.90448 
1 2.09235 2.32772 -0.126481 
1 -0.171533 -1.38786 1.59879 
1 0.550343 0.413405 0.650592 
1 3.29127 1.41847 -1.27081 
1 1.89673 -0.742304 -2.56805 
1 -2.80998 0.470396 -2.3999 
1 -3.13734 1.62683 1.19226 
1 -3.16555 -0.387891 1.51881 
1 3.53726 -3.58264 -1.55136 
1 0.725865 2.21225 0.951632 
1 1.4213 -1.95192 -3.5142 
1 -2.60047 -2.4436 -0.983491 
1 -2.81554 2.65017 -0.627357 
1 2.68149 -3.00775 0.80853 
1 -1.51873 1.8418 -2.15957 
1 1.29548 -2.90971 -3.04147 
1 2.38293 1.54395 0.641476 
1 1.79463 3.73531 1.95927 
1 0.508238 -1.57199 0.744683 
1 -0.582491 -0.13528 0.33361 
1 -3.25565 2.14484 0.236857 
1 -2.52367 3.37905 -2.37053 
1 1.04251 -3.69957 -2.38737 
1 -0.22351 2.2774 0.528708 
1 -3.42764 -2.228 1.97101 
1 2.01059 -1.82002 2.3453 
1 -1.75955 2.8167 -0.658976 
1 3.2341 0.546592 2.67941 
1 3.51259 2.306 1.217 
1 -2.53817 2.31722 -2.1154 
1 1.80162 -0.129594 3.05688 
1 -3.12615 0.142293 -0.306587 
1 0.15494 1.99608 -1.59744 
1 3.14826 2.23271 0.218174 
1 3.93067 3.30159 2.70788 
1 0.816503 -3.08309 1.86212 
1 0.632113 2.90966 -1.97203 
1 1.39224 2.80624 -2.72983 
1 -0.231302 2.08475 -0.532369 
1 3.86118 2.60943 -3.42089 
1 -2.58154 0.708951 -0.978543 
1 0.952494 1.19947 1.24482 
1 -3.17885 -3.4863 2.09635 
1 -3.31697 2.19109 2.14782 
1 2.11054 -2.92012 2.42712 
1 2.85746 -3.46326 -2.41281 
1 3.49498 0.755319 -0.423404 
1 3.29451 -2.84672 -3.14835 
1 -2.20903 -3.47816 3.42564 
1 -2.23043 2.08462 2.51505 
1 2.47784 2.61568 0.920715 
1 1.785 -2.90914 -1.23483 
1 -1.44478 0.345069 0.679407 
1 3.57955 1.27548 1.9244 
1 -1.04625 -2.90861 0.0423421 
1 -3.18434 3.27042 0.350261 
1 -3.03838 1.06313 0.217583 
1 0.211341 -2.18231 2.17575 
1 1.16189 -0.537584 -1.13999 
1 2.87026 0.736946 1.2883 
1 -2.266 -0.429936 2.19061 
1 1.33028 1.64784 0.258782 
1 -1.80685 -1.41096 2.07449 
1 2.21919 1.60899 3.58916 
1 3.58893 -1.37808 0.355016 
1 0.884064 1.56281 -0.755523 
1 -2.44572 -1.17111 3.1114 
1 3.5049 2.37626 3.07593 
1 -0.801916 -2.15629 1.06167 
1 -1.8013 -2.82197 -1.61022 
1 -2.8809 -0.172804 3.07255 
1 0.470256 -1.52954 -3.16933 
1 3.16987 -2.72491 -1.00954 
1 0.876075 0.526112 -1.01933 
1 -2.24988 -0.142029 1.12276 
1 -3.13213 3.03064 -1.5677 
1 0.234513 0.287015 -3.55038 
1 2.09945 0.848223 2.81878 
1 1.44734 -0.616098 -3.53809 
1 -0.679625 -1.28175 3.57657 
1 0.255228 0.241441 -2.48791 
1 -0.813863 -1.32331 -0.835863 
1 -0.0260932 -0.339283 1.2459 
1 3.18064 -3.42574 -0.0661896 
1 -1.41279 3.58033 1.74319 
1 2.52101 -0.400717 -3.63585 
1 3.49982 -2.64117 -2.01746 
1 1.14199 2.98058 1.5816 
1 0.71749 3.41677 -0.437038 
1 -3.52575 -2.27364 0.904071 
1 0.750788 -3.85581 2.62568 
1 -1.3825 -3.60104 -2.18342 
1 1.6345 0.683156 0.561353 
1 -3.53834 1.37897 2.94511 
1 3.70287 -2.25462 2.95939 
1 -1.35218 1.42841 0.566576 
1 -0.576804 -0.70988 -2.27571 
1 2.42461 2.54017 2.89709 
1 -1.41806 2.17897 3.2422 
1 1.85806 1.77218 2.39495 
1 0.487492 -1.98451 3.31744 
1 2.88337 -0.415429 -0.044296 
1 -1.31841 -0.783549 -1.57289 
1 3.02782 -3.47341 2.37234 
1 -1.85688 -1.70553 -1.27084 
1 2.86074 -1.65357 2.95671 
1 -3.47918 0.109275 -3.1767 
1 2.11925 -0.236768 -1.60196 
1 1.20723 -0.0357516 -0.178798 
1 2.98525 3.38245 3.20947 
1 -1.07956 -2.22622 -3.54881 
1 0.049887 -2.26026 -2.29416 
1 -3.58178 -1.25476 3.23931 
1 -3.3955 -3.08558 -0.591473 
1 -1.99797 -0.70628 -0.81722 
1 -2.83447 -1.37963 -0.952632 
1 -2.37112 3.60112 1.25258 
1 -0.0309876 1.58129 1.29966 
1 -0.0787055 1.13558 -0.978149 
1 0.321253 -2.56468 -3.26098 
1 1.07552 -1.76994 1.68556 
1 -0.490461 0.813144 0.796005 
1 -1.98745 0.855996 -0.0730464 
1 -3.08677 -2.21737 -0.0671515 
1 -3.10563 -3.16443 0.437228 
1 1.80529 -3.87857 3.02007 
1 1.58398 -3.63064 -0.389492 
1 0.865272 0.000143233 2.62543 
1 -1.73861 0.485708 -2.6912 
1 -1.63704 -1.87731 3.07466 
1 -1.80675 -3.22159 -0.633786 
1 0.368993 -3.66129 -3.2641 
1 -2.15089 2.99342 0.399616 
1 0.713371 1.0959 -1.93645 
1 1.16762 -2.42621 2.61579 
1 1.93643 -2.46897 1.4318 
1 -2.19053 -0.15514 0.0573539 
1 -2.96823 -0.339542 -1.27356 
1 1.68723 -0.629692 2.11384 
1 3.00767 0.0876449 -2.82683 
1 -2.93428 2.55138 3.13127 
1 -1.61954 2.1171 -3.18576 
1 2.89461 1.57898 2.74475 
1 1.29395 2.03012 -1.9772 
1 0.110357 0.687538 2.94296 
1 -0.509558 -2.25646 3.03096 
1 -0.958373 2.1223 1.27346 
1 -0.0839794 -1.26745 2.68105 
1 -0.125214 -2.40788 -0.71415 
1 0.316228 2.7283 -2.9951 
1 3.46251 1.29247 0.607128 
1 1.04275 1.89007 -3.25303 
1 0.172314 1.36173 3.80986 
1 -0.0480818 0.157401 -1.42619 
1 -0.785426 -0.261363 -0.741624 
1 -2.08471 -2.50428 -3.45133 
1 -0.579665 3.34998 2.37874 
1 -2.18736 -2.09922 -2.25144 
1 -0.0332853 2.57188 1.69297 
1 -0.752686 2.43508 -2.63599 
1 -0.880496 0.80819 -0.231339 
1 2.28036 2.5358 -1.9554 
1 -1.93309 -2.28092 -0.151952 
1 1.67073 -2.86893 0.437969 
1 -2.96005 -1.27958 2.2035 
1 0.403561 -0.597223 0.289716 
1 -1.83952 0.200119 3.08383 
1 -1.62316 3.19249 -2.94333 
1 2.0603 -0.0651183 1.17424 
1 3.60728 3.06826 -2.37777 
1 2.06485 0.312215 -2.5039 
1 -2.15882 -3.17133 2.30281 
1 -2.11858 3.66005 -1.40191 
1 -0.507593 -1.16002 0.653419 
1 0.805617 -0.631525 -2.73733 
1 2.75522 -2.6766 3.26498 
1 -0.277802 3.11665 -0.0848585 
1 -3.55174 0.565896 -1.40301 
1 -0.0450115 3.45397 3.29171 
1 -3.39791 0.618061 1.23472 
1 -1.01214 3.45236 -1.10901 
1 -0.332783 -3.47868 0.544167 
1 2.08543 0.559241 -3.59829 
1 1.93975 -1.21043 3.23748 
1 -1.7787 1.58332 1.67971 
1 1.06962 2.57145 -1.07048 
1 1.62471 -1.79095 0.53077 
1 -2.97589 1.38039 -1.81386 
1 -3.30079 1.85842 -2.76419 
1 -2.98791 -2.95427 2.96001 
1 -1.30513 -0.62258 1.1227 
1 -1.99068 0.977134 -1.78082 
1 1.05579 -1.34323 2.70643 
1 2.66433 0.610614 0.24728 
1 3.09528 2.96065 -1.41842 
1 2.03604 -1.3505 1.39463 
1 -2.08313 -0.085232 -1.81634 
1 -2.41945 1.81343 3.64742 
1 -2.49725 3.65602 -0.379408 
1 -1.62578 2.98319 2.57827 
1 -3.49837 -3.44482 -2.56914 
1 -2.33373 1.39493 -2.77671 
1 1.38417 2.70554 2.67491 
1 0.213569 -3.46418 -1.73865 
1 1.55554 1.20529 -2.60282 
1 0.142685 0.628058 1.76709 
1 0.681821 2.42771 -0.0894402 
1 2.52436 0.353228 -0.770448 
1 1.1683 0.327555 -3.07124 
1 2.80919 2.56724 -3.58484 
1 -2.51369 -1.56956 -3.07247 
1 -0.462983 -3.08892 -3.72437 
1 -2.27266 -3.13778 -2.60507 
1 -2.62822 0.916167 3.12858 
1 -1.61008 0.340753 -0.927814 
1 3.18063 0.651335 -3.74379 
1 0.276246 3.57633 1.71864 
1 3.79994 -0.745847 -0.502294 
1 1.75645 0.833343 -1.54878 
1 -2.36268 -1.33134 0.0133869 
1 -2.96002 -3.06257 -1.74977 
1 2.83668 -0.902556 0.917786 
1 0.075953 -1.52881 -0.215189 
1 0.107283 1.5533 2.34505 
1 1.47878 2.86191 0.537661 
1 -0.935517 -1.87562 0.0311024 
1 -0.724209 0.727218 3.74125 
1 -0.139727 -0.64897 -3.20728 
1 -0.319876 -3.4463 -0.677089 
1 1.99875 -2.85694 -2.25636 
1 0.194184 -0.65968 -0.763335 
1 1.93545 1.86189 -1.08994 
1 2.45947 1.5156 -1.97122 
1 -1.07274 1.28633 -1.36109 
1 1.138 -1.18383 -0.271233 
1 -1.82903 0.53186 1.91114 
1 1.32545 3.82891 0.986411 
1 -1.46992 -0.765078 2.98244 
1 2.52774 -2.15042 -1.64505 
1 3.65793 0.948547 -2.46138 
1 2.95113 -1.28946 1.95734 
1 -2.06025 -3.19603 0.486423 
1 2.70873 1.49179 -0.39458 
1 0.987644 -2.68005 -1.97339 
1 3.25137 -2.36138 0.0742198 
1 -0.640425 -2.86151 -1.64355 
1 -0.633569 1.50442 3.04429 
1 3.71854 -0.619148 2.40469 
1 -1.60931 -1.56437 0.767717 
1 2.45009 3.14871 -2.81009 
1 3.50017 -3.05512 1.50372 
1 -0.58829 -1.61935 -2.86176 
1 -0.910439 0.48096 2.6755 
1 -3.33632 -2.2315 -2.86327 
1 -1.42986 -0.182629 -3.48106 
1 -2.98018 -0.739805 -3.52163 
1 -1.10822 3.48763 3.37907 
1 1.25842 3.60556 -1.33597 
1 -3.0475 -0.666581 0.449867 
1 -1.40807 -3.30986 -3.26638 
1 2.3248 -2.44627 -3.22001 
1 0.612008 -0.78924 1.96379 
1 2.68028 1.13456 -2.92335 
1 -2.46943 -2.16937 2.45036 
1 1.83153 -1.29111 -1.55795 
1 -2.92461 2.67953 1.19422 
1 2.06146 -0.661349 -0.642692 
2 1.67829 0.159044 -0.930166 
2 0.446102 -3.05947 -2.55023 
2 -0.984282 -0.858607 -3.11226 
2 3.6737 -0.639168 0.897722 
2 1.92539 3.22733 1.2233 
2 -3.20395 3.24834 -2.95113 
2 2.00467 3.90461 -2.74469 
2 -0.174536 0.874284 -2.97746 
2 -1.60891 -1.5093 -0.452097 
2 1.95167 -3.31923 1.18475 
2 -1.19395 2.77898 -3.57789 
2 -0.627254 1.79354 -2.04121 
2 0.252497 -2.5548 -1.49163 
2 2.61563 0.193296 3.18387 
2 -3.069 -1.53467 0.704583 
2 -3.47239 0.518075 3.25385 
2 -2.33188 3.65041 -3.23618 
2 1.2537 -0.778723 -1.98044 
2 1.28664 -0.0954852 0.691433 
2 -1.34871 0.052229 -0.137624 
2 -1.55351 3.51552 0.86899 
2 2.46659 1.13551 -1.15883 
2 2.06944 0.0480706 -0.0420621 
2 -0.700064 -3.66315 1.60493 
2 2.77073 -2.51057 -2.47107 
2 1.31791 -1.30466 -2.93252 
2 3.0455 -1.04027 3.52815 
2 2.65062 -3.0391 -1.66368 
2 -0.453574 -0.840886 -0.169387 
2 1.46036 2.94065 -0.349176 
2 0.585726 2.8721 2.2558 
2 -3.30256 1.90359 -3.84265 
2 1.63285 -2.15123 -1.68076 
2 -1.21544 0.982368 -2.18102 
2 -2.96123 2.14676 -1.33839 
2 -0.737391 0.548788 -1.05377 
2 -2.8817 0.227836 0.583119 
2 -2.45051 0.371173 2.50197 
2 2.77645 -2.04452 -0.645796 
2 3.3639 -1.87522 -1.58736 
2 -1.66955 -1.90859 -2.97766 
2 3.53183 -3.00634 0.62285 
2 -1.42958 -0.142977 2.32543 
2 2.37413 -2.27624 0.408561 
2 2.2026 -2.01416 3.48513 
2 0.932699 -2.17771 -2.7403 
2 -1.3111 0.931189 1.29693 
2 -1.41454 -0.321629 -2.42466 
2 -0.722354 -3.41451 2.95774 
2 2.67888 1.00242 2.11985 
2 0.0859498 -1.32796 -2.36895 
2 1.51013 2.92502 -1.82523 
2 -2.67432 0.398356 1.63921 
2 -2.30088 2.80179 -1.37051 
2 -2.55883 -2.92779 -0.227635 
2 -2.53227 2.05628 1.68374 
2 -1.56371 -2.45163 0.654072 
2 -3.31685 -3.54844 1.18991 
2 -1.52321 -3.65358 2.61514 
2 0.284444 3.50013 -2.49534 
2 -3.47424 -2.52641 -1.24991 
2 -2.21485 -2.602 3.16232 
2 3.60012 1.60574 -0.208469 
2 1.00684 -1.29907 3.5877 
2 -2.7701 -0.641591 -0.424059 
2 -2.85047 -0.388513 -2.18168 
2 0.389547 2.21332 3.70194 
2 -2.01352 -0.801786 0.607538 
2 0.718747 1.08892 -2.90362 
2 3.70148 -2.92649 2.41554 
2 -0.498385 -2.50529 -2.9571 
2 -0.608484 1.58654 0.11948 
2 -3.10838 -3.6986 -1.14067 
2 3.65706 -1.5433 2.41476 
2 -0.210116 -1.95622 -3.62413 
2 -1.9775 -3.18994 1.41822 
2 0.382067 -3.34271 1.03896 
2 1.48757 -2.73481 -0.430403 
2 -2.17026 -0.485612 3.60274 
2 -2.66991 3.62334 2.85369 
2 2.69309 2.31956 -0.820175 
2 -1.82241 1.19977 -0.872661 
2 0.0906277 -2.1464 1.25537 
2 -3.39238 -1.50174 -3.36851 
2 0.92491 0.820463 -0.110455 
2 -3.21743 -1.39061 -0.182827 
2 -0.737862 2.7614 3.04733 
2 -1.07827 -1.41696 1.45506 
2 2.48211 -0.617991 1.69551 
2 -0.421201 -0.742606 -1.40436 
2 -1.05235 1.61052 3.79063 
2 2.63386 -3.01673 1.7072 
2 2.53663 3.35639 2.38483 
2 2.84158 -0.0400893 0.794536 
2 1.61008 0.311196 2.27016 
2 -1.62217 -2.44193 2.40403 
2 -0.948153 -1.44109 2.7519 
2 -0.897555 2.68693 -0.541372 
2 -2.64609 -1.96803 1.60441 
2 -3.59128 -2.52997 -3.71084 
