ITEM: TIMESTEP
19
ITEM: NUMBER OF ATOMS
500
ITEM: BOX BOUNDS xy xz yz pp pp pp
-3.7345 3.74944 0.014938
-3.7345 3.7345 0
-3.7345 3.7345 0
ITEM: ATOMS type xu yu zu 
1 0.0223386 -2.18513 -2.24336 
1 -0.93387 -1.77052 -1.79317 
1 -0.528773 -1.52989 -2.85846 
1 -1.29749 -2.44441 -2.51306 
2 -1.7589 -1.87472 -3.02245 
1 -3.30422 -1.21624 -2.5398 
1 -1.16834 -2.31221 -0.826268 
1 -3.30018 -2.27393 -2.86949 
1 -0.716978 -2.86611 -1.59895 
1 -1.50281 -1.21249 -2.52798 
1 -2.29951 -2.10169 -2.35893 
1 -2.85842 -1.39604 -0.946276 
1 -2.5581 -1.54429 -3.22442 
1 -3.13217 -0.712627 -3.48163 
1 -2.34593 -3.14314 -2.66519 
1 -0.121756 -2.36133 -0.787129 
1 -3.19475 -2.00273 -1.79468 
1 -2.43038 -1.12988 -1.92479 
1 -2.64881 -2.44124 -0.937943 
1 -1.85716 -2.7288 -1.61066 
1 -0.606905 -0.601966 -2.29892 
1 -0.890386 -1.25194 -0.834614 
1 -2.26444 -0.549644 -2.85 
2 -1.64113 -1.45975 -0.396314 
1 -1.87747 -1.6911 -1.23853 
1 -2.94875 -3.08889 -1.71648 
2 -0.533831 -2.40411 -2.93989 
1 -1.35734 -0.733418 -1.59878 
1 -3.46426 -3.3848 -2.58046 
2 -0.940495 -0.791651 -3.12715 
1 -2.00825 -0.719171 -0.787375 
1 -0.463348 -3.17523 -2.58281 
1 -0.0220257 -1.38978 -1.4327 
1 -0.844483 -0.212486 -0.707889 
2 -0.465457 -0.594156 -1.4134 
1 -2.95057 -0.398222 -1.29254 
1 -1.40861 -3.21006 -3.23579 
2 -0.552013 -0.874294 -0.099434 
2 0.148539 -1.05008 -2.51166 
1 0.14378 -0.503554 -0.741316 
2 -1.45327 -0.296515 -2.47936 
2 -2.81161 -0.650499 -0.43307 
1 -1.10683 -2.12894 -3.54169 
1 0.0523737 -1.45833 -0.318041 
2 -3.46507 -1.5446 -3.37856 
2 -3.27655 -1.38944 -0.19268 
1 -1.64384 -1.18898 -3.58651 
1 -1.84183 -3.16051 -0.632952 
1 -3.41936 -3.07979 -0.538825 
1 -0.318652 -3.40453 -0.642326 
2 -2.88528 -0.448275 -2.22337 
1 -1.44594 -3.51646 -2.17854 
1 -1.96742 -2.24031 -0.121151 
1 -3.02403 -3.09206 -3.50329 
1 -1.45527 -0.163944 -3.47919 
2 -3.64758 -2.51662 -3.67359 
1 0.127413 -3.49738 -1.75557 
2 -2.59717 -2.89813 -0.171283 
1 -0.0822559 -0.488107 -3.19359 
2 -3.51188 -2.58307 -1.23353 
1 -2.13007 -2.48983 -3.51954 
1 -2.13429 -0.0990191 -1.89016 
2 0.18743 -2.6467 -1.54309 
1 0.289478 -2.46643 -3.21862 
1 0.318576 -3.52076 -3.25172 
1 0.345353 -0.493592 -1.83925 
2 0.404757 -3.00984 -2.51685 
1 0.461842 -1.41447 -3.26897 
1 0.724076 -3.00692 -0.958314 
1 0.797621 -2.22749 -0.146062 
1 0.831866 -1.43437 -2.09283 
1 0.846747 -1.92932 -1.15259 
2 -3.07255 -3.67949 -1.06224 
2 0.866807 -2.11768 -2.67044 
1 0.868389 -0.508229 -2.73106 
1 0.974845 -2.64839 -1.96481 
1 1.09564 -0.630511 -1.13675 
1 1.1031 -1.20914 -0.250179 
1 1.17957 -0.0842758 -0.153723 
2 -0.224392 -1.92339 -3.6679 
1 1.22894 -2.87741 -3.02621 
2 1.24003 -1.29356 -2.83687 
1 -0.485114 -2.99735 -3.6974 
2 1.27408 -0.661358 -1.97107 
1 1.38387 -1.90606 -3.42694 
1 -3.71011 -1.12866 -1.54269 
2 1.42573 -2.71224 -0.490041 
1 -3.14526 -2.20857 -0.0208597 
1 0.957009 -3.72332 -2.37659 
1 1.4561 -0.815269 -3.52338 
1 1.47532 -3.60341 -0.450647 
2 1.59526 -2.14248 -1.56306 
1 1.72268 -1.93 -2.40985 
1 1.76193 -2.94336 -1.25865 
1 1.81558 -1.28646 -1.55294 
1 1.82275 -1.9382 -0.695638 
1 -2.55114 -1.20051 1.25968 
1 -1.83603 -2.29923 1.55917 
1 -0.839369 -2.1106 1.09752 
1 -1.69137 -1.53767 0.741102 
2 0.0399128 -2.11447 1.23064 
2 -2.13853 -0.748144 0.621771 
1 -1.60584 -0.640066 1.33479 
1 -3.59772 -2.32564 0.926995 
2 -1.28488 -1.45469 1.4895 
1 -1.21996 -3.11699 1.1079 
2 -2.87092 -1.95291 1.57344 
2 -1.6182 -2.41887 0.696917 
1 -2.50997 -2.18114 0.776973 
1 -3.11718 -0.694312 0.435162 
1 -0.414378 -3.49012 0.521687 
2 -3.1337 -1.56793 0.694172 
1 -0.689089 -1.05001 0.866516 
1 -2.8378 -2.85055 1.47937 
1 -3.24801 -0.46537 1.52654 
1 -0.19587 -2.93603 1.39078 
1 0.0173389 -1.32702 1.60877 
1 -0.530473 -0.127433 0.347604 
2 -0.710595 -3.65148 1.59853 
1 0.0639682 -0.323964 1.30132 
1 -1.40693 -0.745684 0.0981546 
1 -2.09314 -3.16595 0.5114 
1 -0.929398 -1.75056 0.0708988 
1 -2.42732 -0.0471056 1.08722 
2 -2.0277 -3.1543 1.4308 
1 -3.1581 -3.19864 0.484385 
1 -1.11191 -2.83726 0.0870293 
1 -0.168219 -2.42595 0.329266 
1 -3.67673 -1.40186 1.39512 
1 0.39507 -0.604508 0.307218 
2 0.38986 -3.43902 0.938774 
1 0.500679 -3.21206 0.0561538 
1 0.428318 -1.58234 0.657221 
1 0.700003 -2.57482 0.880766 
1 0.985145 -1.85851 1.58 
1 1.03134 -0.872366 1.17524 
1 1.0474 -3.27522 1.51828 
2 -3.42485 -3.6667 1.17337 
2 1.23119 -0.173418 0.727552 
1 -2.42479 -1.32264 0.0213049 
1 -2.28469 -0.103684 0.040378 
1 1.54647 -2.88757 0.366521 
1 1.5228 -1.83069 0.535639 
2 1.78083 -3.38355 1.03141 
1 1.82437 -0.76289 0.421416 
1 -3.35167 1.08766 -3.4803 
1 -3.53191 0.451824 -1.45078 
1 -3.4464 1.78946 -2.73483 
1 -3.13025 1.61804 -0.653692 
1 -3.20553 0.119616 -0.372883 
1 -3.05265 1.37817 -1.77961 
1 -2.91771 0.434435 -2.39427 
1 -2.63792 0.257756 -3.44636 
1 -2.62553 0.7686 -0.940675 
1 -2.47521 1.36397 -2.76495 
1 -2.06509 0.954186 -1.80339 
1 -1.91524 1.06117 -3.64175 
1 -1.90959 0.877066 -0.117039 
2 -1.80523 1.17867 -0.938481 
1 -1.82462 0.486067 -2.73536 
1 -1.70776 0.294501 -0.988834 
2 -1.46104 0.089035 -0.175389 
2 -1.31302 1.01721 -2.26533 
1 -1.19587 1.74233 -0.537495 
1 -1.14131 1.47304 -2.96233 
1 -1.12288 1.32865 -1.48116 
1 -1.11415 0.27453 -1.86315 
1 -3.68161 0.13058 -3.1494 
1 -0.876075 0.740867 -0.196762 
2 -0.888255 0.606878 -1.05753 
1 -0.752118 0.327449 -2.86118 
2 -0.475304 1.53898 -0.0557871 
1 -0.411226 1.09328 -2.20938 
2 -0.365617 1.13749 -3.11728 
1 -0.246737 1.2332 -0.905743 
1 -0.155188 0.31264 -1.4292 
1 0.107308 0.5542 -3.53717 
1 0.125735 0.459564 -0.25745 
1 0.281902 0.364932 -2.50784 
2 0.383871 1.27543 -2.57131 
1 0.581284 1.12423 -1.72575 
1 0.778413 1.42056 -0.66672 
1 0.830463 0.408692 -1.00002 
1 1.03729 0.123747 -3.59617 
1 1.13581 0.990642 -2.90749 
1 1.18254 0.225725 -1.95036 
2 1.62677 0.0590539 -0.940438 
1 1.67522 0.837554 -0.453733 
1 1.71134 1.21655 -1.90603 
1 1.74303 1.82739 -0.910848 
1 1.78271 0.142385 -2.79459 
1 1.84713 1.83643 -2.87986 
1 -3.45097 0.553296 1.19777 
1 -2.97932 1.49426 1.18978 
1 -2.92921 0.997971 0.199429 
2 -3.02851 0.179234 0.499513 
2 -2.66526 0.650791 1.55731 
1 -2.13062 0.956904 0.925177 
1 -1.82043 0.470521 1.82227 
1 -1.72154 1.52866 1.77641 
1 -1.44768 0.218244 0.6851 
2 -1.28806 0.90059 1.23111 
1 -1.2068 1.42973 0.505398 
1 -0.861899 0.0985321 1.58218 
1 -0.444286 0.796715 0.860881 
1 0.0187094 1.63988 1.32649 
1 0.167406 0.640602 1.80229 
1 0.327972 1.38009 0.298739 
1 0.550212 0.382977 0.690374 
1 0.955257 1.1856 1.22488 
2 0.934019 0.789036 0.000593245 
1 1.08519 0.145519 1.58934 
1 1.42306 1.54656 0.28935 
1 1.63096 0.57943 0.606065 
1 1.85175 -2.51797 1.34657 
1 1.90845 -0.846687 -2.52432 
1 1.91002 0.879761 1.68386 
1 2.27619 -2.42137 -3.1504 
2 2.56985 -3.03413 -1.60322 
1 3.5625 -3.60173 -1.42368 
1 3.11963 -2.74457 -0.983901 
1 3.24535 -2.82413 -3.07271 
1 3.6591 -1.87025 -0.757832 
1 3.15635 -0.27425 -1.28748 
1 3.13762 -3.43508 -0.125411 
1 2.80693 -0.0341269 -2.60033 
2 2.7139 -2.56415 -2.4033 
1 2.09106 -0.236458 -1.65502 
1 3.73542 -0.291981 -2.18886 
1 2.80825 -0.487061 -0.0370888 
1 1.99405 -0.706734 -0.636065 
2 3.32713 -1.89466 -1.59009 
1 2.80415 -1.29153 -1.00236 
1 3.20581 -1.89979 -3.58397 
2 2.71096 -2.07413 -0.622431 
1 3.72569 -0.762712 -0.526462 
1 2.51673 -3.66357 -0.989268 
1 1.95028 -2.99565 -2.2863 
1 3.3198 -0.896634 -3.11584 
1 3.4746 -2.68356 -1.97359 
1 2.29721 -2.8203 -0.326663 
1 2.85837 -3.49156 -2.27941 
1 3.21089 -1.82969 -2.5184 
1 2.29978 -3.47119 -3.29666 
1 2.82517 -0.985428 -2.04003 
1 2.45219 -0.341148 -3.58917 
1 2.48608 -2.15293 -1.63467 
1 2.35596 -1.36529 -3.2897 
2 2.03513 -0.0073585 -0.0165804 
2 2.76291 -0.0699046 0.777617 
1 1.95955 -1.35492 1.36765 
2 2.53678 -3.21579 1.71983 
2 2.26645 -2.33935 0.43258 
1 2.58962 -3.06838 0.82434 
1 3.22474 -0.202868 1.52626 
2 3.45175 -3.05434 0.620143 
2 3.62037 -0.692363 0.898414 
2 2.4955 -0.661556 1.7563 
1 3.41384 -3.12191 1.51058 
1 2.78802 -0.938519 0.931962 
1 2.48256 -1.55185 0.0614243 
1 2.03319 -0.150821 1.24399 
1 3.18625 -2.39293 0.0844284 
1 2.82632 -2.02978 1.06668 
1 3.52487 -1.41118 0.344009 
1 3.19258 1.62406 -3.50965 
2 3.52443 1.53446 -0.362572 
1 2.4574 0.270998 -0.765764 
1 3.48861 1.35722 -1.24116 
2 2.18846 1.06657 -1.13894 
1 2.6488 1.45092 -0.463244 
1 2.73132 0.67501 -1.72644 
1 3.39819 0.653801 -0.482295 
1 2.50793 0.996301 -2.77571 
1 2.60308 1.765 -1.52834 
1 3.54407 0.895168 -2.40125 
1 1.96404 0.667242 -3.67255 
1 3.02696 0.610403 -3.7093 
1 3.55989 0.0509103 0.427994 
1 2.49804 1.55976 0.651856 
1 2.67612 1.68602 1.71746 
1 2.89215 0.736968 1.26607 
1 2.61738 0.594293 0.232691 
1 3.5234 1.19122 0.469063 
1 -3.62175 3.3349 -0.528482 
2 -3.45592 2.01794 -3.65361 
2 -3.38985 3.27504 -2.92274 
1 -3.1969 3.03603 -1.48492 
2 -3.10233 2.16715 -1.32324 
1 -2.88621 2.59714 -3.15546 
1 -2.81015 2.64695 -0.583789 
1 -2.68963 3.36541 -2.37648 
1 -2.68556 2.32407 -2.11889 
1 -2.60415 3.68058 -0.295022 
2 -2.36351 2.7603 -1.36718 
1 -2.23969 3.63828 -1.35873 
1 -2.22071 1.89986 -1.22641 
1 -2.18744 1.89476 -0.162622 
1 -1.91083 2.19355 -3.16133 
1 -1.79538 3.30467 -2.9809 
1 -1.74717 2.78717 -0.707454 
1 -1.75014 2.92973 -1.97695 
1 -1.70147 1.87728 -2.16323 
2 -1.34695 2.79581 -3.5203 
1 -1.14178 3.57362 -1.13253 
1 -1.00947 2.40338 -1.44281 
1 -1.02072 2.52654 -2.70408 
2 -2.56045 3.62046 -3.2858 
2 -0.868547 2.56201 -0.594211 
2 -0.810123 1.86771 -2.1657 
1 -0.670276 3.42618 -3.12453 
1 -0.64084 3.26678 -2.04872 
1 -0.537187 2.50825 -3.68283 
1 -0.447433 3.12201 -0.0916075 
1 -0.121887 3.06602 -1.13421 
1 -0.0655889 1.98447 -1.67965 
1 -0.114143 1.95785 -2.81545 
1 -0.024491 2.19395 -0.535433 
2 0.0403757 3.54322 -2.54956 
1 0.359 2.87482 -2.09934 
1 0.360277 2.90397 -3.166 
1 0.577897 3.27944 -0.296076 
1 0.880715 2.38205 -1.28641 
1 0.88345 1.9552 -3.38067 
1 0.907678 1.96046 -2.2999 
1 0.94795 3.46343 -1.28686 
1 1.05374 2.37091 -0.22397 
2 1.20809 2.96193 -1.93736 
1 1.32452 3.6158 -3.42625 
1 1.40107 2.81072 -2.77147 
2 1.54687 3.07668 -0.0105202 
2 1.8044 3.64606 -2.66596 
1 1.85256 2.38732 -1.88484 
1 1.83623 2.91122 -0.873139 
1 -3.63079 3.03229 1.5551 
1 -3.26588 3.19455 0.469565 
1 -3.17691 2.09033 0.301113 
1 -2.80733 2.56874 1.1868 
1 -2.52999 3.61198 1.22712 
2 -2.44918 1.98448 1.70842 
1 -2.20359 2.96219 0.390748 
1 -2.02587 1.98642 0.85825 
1 -1.82286 2.64101 1.63571 
2 -1.69138 3.56981 0.886598 
1 -1.55856 3.63358 1.77288 
1 -1.26939 2.48687 0.2319 
1 -0.901671 3.15671 1.03399 
1 -1.3917 3.58299 0.0427666 
1 -0.964727 2.09145 1.27866 
1 -0.271088 2.23943 0.49448 
1 -0.0939247 2.62473 1.72515 
1 0.142371 3.64643 1.81924 
1 0.202549 3.16607 0.808186 
1 0.790307 2.26375 0.830922 
1 0.997631 3.10154 1.5535 
1 1.14761 3.63114 0.596625 
1 1.71968 1.88916 1.28757 
1 1.75494 2.84712 0.860355 
1 1.905 3.50954 -1.8001 
1 1.90048 3.6245 1.77365 
1 3.54124 3.15742 -2.24172 
1 2.83919 3.01476 -0.366008 
1 3.53175 2.59972 -3.15082 
1 2.52853 2.46294 -3.47956 
1 3.55938 2.34354 -0.829778 
1 2.47247 3.03628 -2.58975 
1 3.66286 2.19757 -1.85428 
1 3.29104 3.59498 -3.18891 
1 2.79988 2.85568 -1.48551 
1 2.86751 2.00419 -2.53268 
2 2.54687 2.28974 -0.803219 
1 2.92807 3.41851 1.80445 
1 3.58636 2.01931 1.1969 
1 2.2117 3.60929 0.264096 
1 2.12255 2.33399 0.00231366 
1 3.26501 3.55223 0.791478 
1 2.76906 2.62481 0.969126 
2 2.42915 3.42439 1.09137 
1 3.23336 2.17885 0.151034 
1 -1.024 -1.96964 2.13867 
1 -0.574545 -2.24847 3.03204 
1 -0.970495 -3.02504 2.19549 
1 -2.37632 -0.385827 2.19084 
1 -2.53188 -2.20964 2.3837 
1 -1.42517 -0.721977 2.94061 
2 -1.68007 -2.52076 2.39981 
1 -1.90162 -1.3425 2.13303 
1 -1.71047 -1.8904 3.04558 
1 -2.46913 -1.13918 3.14818 
1 -3.04326 -1.30313 2.25101 
1 -2.23759 -3.22644 2.3089 
1 -3.55576 -2.28369 2.00593 
1 -1.44589 -2.89309 3.17524 
2 -1.52399 -3.58992 2.63809 
2 -1.48624 -0.287691 2.15534 
2 -0.957231 -1.45141 2.83032 
1 -0.872329 -0.92302 2.048 
1 -2.95987 -2.08392 3.42239 
2 -0.736245 -3.36381 3.01187 
1 -3.0983 -3.01036 2.89423 
2 -2.30776 -2.66531 3.10386 
1 -0.0863852 -1.30769 2.69066 
1 -2.27922 -3.53039 3.35379 
1 -3.03697 -0.235353 3.06251 
1 -0.206526 -0.197384 2.39698 
1 0.0280796 -3.15008 2.682 
1 0.00784474 -2.22258 2.12997 
1 -0.550314 -0.156103 3.39225 
1 -3.28011 -3.57628 2.04977 
1 -0.615118 -1.18367 3.60007 
1 -3.65883 -1.29165 3.24339 
1 0.463375 -2.12225 3.27626 
1 0.485871 -0.680135 3.34753 
1 0.668506 -0.67375 2.14941 
1 0.851627 -3.12739 3.39047 
1 0.965181 -3.68215 2.46792 
2 0.981212 -1.40385 3.45657 
1 0.978616 -1.54979 2.58684 
1 0.934505 -2.6124 2.35983 
2 -2.26297 -0.511881 3.73018 
1 1.5896 -2.38793 3.1564 
1 1.74449 -0.166388 3.09579 
1 1.71879 -0.699224 2.17278 
1 1.83231 -1.30281 3.142 
1 1.8284 -3.71114 3.10722 
2 -3.56448 0.413331 3.4453 
1 -3.54585 1.57012 2.99856 
1 -3.2435 0.339152 2.20985 
1 -2.82031 0.817784 3.13295 
1 -2.61449 1.81337 3.57303 
1 -2.70931 1.25245 2.17555 
2 -2.40638 0.465286 2.45675 
1 -2.01167 0.118735 3.14178 
1 -1.83627 1.1301 2.76883 
1 -1.09444 0.371081 2.62663 
1 -0.90548 0.808587 3.67242 
1 -0.837663 1.48994 2.88138 
1 -0.761939 1.13541 1.8903 
1 -0.0826128 0.731261 2.89959 
1 -0.00849951 1.57966 3.59528 
1 0.0837302 1.63428 2.38898 
2 -0.875051 1.70424 3.72562 
1 0.808051 0.173984 2.75809 
1 0.977406 1.075 3.39838 
1 1.03116 1.08759 2.2995 
2 1.59228 0.230699 2.2957 
1 1.80959 1.7997 2.38067 
1 1.91815 1.6808 3.4803 
2 3.57963 -1.58762 2.44758 
1 1.93474 -1.89757 2.25593 
1 2.77086 -1.71468 2.93605 
2 2.22611 -1.96216 3.57618 
1 1.91743 -2.96983 2.32708 
1 2.8943 -1.38455 1.94663 
1 2.63457 -0.691778 2.80889 
1 3.61267 -0.637794 2.40584 
2 3.59234 -3.02182 2.40852 
1 2.8272 -3.41317 2.58988 
2 2.94824 -1.08766 3.55477 
1 3.41595 -0.324654 3.42413 
1 3.50296 -3.29154 3.4242 
1 2.8547 -2.45386 2.11911 
1 3.57071 -2.33846 2.97605 
1 2.5961 -2.72858 3.35101 
1 3.61889 1.23253 1.97772 
1 2.85586 1.5289 2.83829 
1 2.0251 0.841073 2.77213 
2 2.7358 0.939253 2.16862 
2 2.57366 0.166222 3.1162 
1 3.31288 0.513205 2.73554 
1 2.46883 0.110428 2.18505 
1 -3.27043 3.38962 3.68253 
1 -3.24442 2.14862 2.07906 
1 -3.07913 2.59577 3.03412 
2 -2.93985 3.55913 2.85691 
1 -2.6578 3.06198 2.16193 
1 -2.23318 2.12234 2.55626 
1 -2.21739 2.9248 3.58021 
1 -1.72553 3.04569 2.65665 
1 -1.49163 2.18211 3.3229 
1 -1.27429 3.53578 3.45856 
1 -1.01628 2.34221 2.30279 
2 -0.92009 2.83344 3.05374 
1 -0.722123 3.41888 2.4197 
1 -0.22915 3.48501 3.38105 
1 -0.088004 2.58721 2.80793 
2 0.317919 2.41207 3.57419 
2 0.575062 2.95408 2.33135 
1 0.726882 3.14486 3.26219 
1 0.892133 2.0671 2.99301 
1 0.876976 2.1274 1.91392 
1 1.4588 2.86258 2.52906 
1 1.57763 2.67728 3.61993 
1 2.38573 2.50935 2.91108 
1 3.6437 3.32609 2.71308 
1 2.21435 2.63984 1.85216 
1 2.78098 3.35496 3.39168 
1 3.38155 2.44662 3.29298 
1 3.21848 2.43655 2.22636 
2 2.33531 3.29904 2.49452 
