ITEM: TIMESTEP
1079
ITEM: NUMBER OF ATOMS
500
ITEM: BOX BOUNDS xy xz yz pp pp pp
-3.7345 3.87641 0.141911
-3.7345 3.7345 0
-3.7345 3.7345 0
ITEM: ATOMS type xu yu zu 
1 0.0504876 -2.25838 -2.29535 
1 -0.933908 -1.80469 -1.83317 
1 -0.588423 -1.61825 -2.8621 
1 -1.25515 -2.55071 -2.5266 
2 -1.66851 -1.90778 -2.97816 
1 -3.28401 -1.11462 -2.53492 
1 -1.16184 -2.36588 -0.879769 
1 -3.33556 -2.23206 -2.86327 
1 -0.640183 -2.85994 -1.64402 
1 -1.52721 -1.21341 -2.49831 
1 -2.18635 -2.09804 -2.25169 
1 -2.83466 -1.37962 -0.952294 
1 -2.51314 -1.56924 -3.07298 
1 -2.98036 -0.740206 -3.522 
1 -2.2736 -3.13663 -2.60496 
1 -0.12524 -2.40751 -0.715072 
1 -3.16135 -1.95667 -1.82479 
1 -2.4272 -1.09564 -1.90416 
1 -2.60052 -2.4434 -0.983062 
1 -1.80191 -2.82127 -1.61035 
1 -0.576925 -0.708975 -2.27502 
1 -0.814462 -1.32288 -0.836075 
1 -2.23265 -0.501813 -2.81084 
2 -1.60922 -1.50902 -0.451657 
1 -1.85734 -1.70516 -1.27019 
1 -2.96007 -3.06299 -1.74887 
2 -0.498263 -2.50435 -2.95752 
1 -1.31902 -0.783115 -1.57287 
1 -3.49774 -3.44465 -2.56926 
2 -0.98398 -0.856861 -3.11273 
1 -1.99788 -0.706006 -0.816648 
1 -0.413573 -3.28351 -2.61203 
1 0.0145926 -1.59302 -1.44142 
1 -0.785756 -0.261161 -0.741345 
2 -0.421422 -0.741738 -1.40397 
1 -2.96785 -0.339663 -1.27305 
1 -1.40963 -3.31014 -3.26659 
2 -0.453815 -0.840844 -0.169321 
2 0.0879808 -1.3228 -2.37416 
1 0.194028 -0.658808 -0.763019 
2 -1.41486 -0.320796 -2.42474 
2 -2.77009 -0.641527 -0.423698 
1 -1.07909 -2.2257 -3.54951 
1 0.0756618 -1.52846 -0.215749 
2 -3.39232 -1.50252 -3.36877 
2 -3.2179 -1.3906 -0.18259 
1 -1.67782 -1.21468 -3.55176 
1 -1.8069 -3.22129 -0.633757 
1 -3.39565 -3.08597 -0.591445 
1 -0.318797 -3.44629 -0.676796 
2 -2.85062 -0.388787 -2.18123 
1 -1.38346 -3.60022 -2.18335 
1 -1.93302 -2.28082 -0.151698 
1 -2.98546 -3.07122 -3.42068 
1 -1.43054 -0.181584 -3.48198 
2 -3.59137 -2.52982 -3.7105 
1 0.213201 -3.46311 -1.73881 
2 -2.559 -2.92763 -0.22757 
1 -0.138851 -0.648926 -3.20589 
2 -3.47408 -2.52633 -1.24948 
1 -2.08444 -2.50362 -3.45163 
1 -2.08319 -0.0848229 -1.81641 
2 0.252517 -2.55343 -1.49268 
1 0.321293 -2.56409 -3.26179 
1 0.368447 -3.6605 -3.2641 
1 0.37562 -0.691368 -1.81687 
2 0.446099 -3.05836 -2.55054 
1 0.47135 -1.5287 -3.17187 
1 0.744485 -2.99984 -0.875274 
1 0.877831 -2.22337 -0.0919631 
1 0.904849 -1.5671 -2.12891 
1 0.939021 -1.9758 -1.13575 
2 -3.10821 -3.69913 -1.13975 
2 0.932231 -2.17664 -2.74066 
1 0.80635 -0.631854 -2.73668 
1 0.987902 -2.6786 -1.97373 
1 1.1621 -0.538024 -1.13958 
1 1.13794 -1.1834 -0.270599 
1 1.20751 -0.0353516 -0.178694 
2 -0.209507 -1.95565 -3.62488 
1 1.29492 -2.90907 -3.04065 
2 1.31854 -1.30447 -2.93321 
1 -0.463949 -3.08888 -3.72377 
2 1.25446 -0.778045 -1.97994 
1 1.42163 -1.9525 -3.51412 
2 1.48697 -2.73551 -0.43025 
1 -3.08723 -2.21731 -0.0671477 
1 1.0416 -3.69889 -2.38717 
1 1.44795 -0.615161 -3.53759 
1 1.58384 -3.63106 -0.389447 
2 1.63334 -2.1513 -1.67836 
1 1.85145 -1.8463 -2.48672 
1 1.78468 -2.91027 -1.2348 
1 1.8319 -1.29105 -1.55829 
1 1.88509 -1.92625 -0.677864 
1 -2.48099 -1.1829 1.24922 
1 -1.78014 -2.34911 1.54466 
1 -0.801542 -2.15637 1.06145 
1 -1.60924 -1.56442 0.768087 
2 0.0911062 -2.14622 1.25471 
2 -2.01339 -0.8019 0.607915 
1 -1.30479 -0.622288 1.12263 
1 -3.52638 -2.27426 0.90428 
2 -1.07656 -1.41651 1.45392 
1 -1.18746 -3.16657 1.06742 
2 -2.64533 -1.96851 1.60437 
2 -1.56356 -2.45169 0.653982 
1 -2.45074 -2.16119 0.745034 
1 -3.04761 -0.666912 0.450085 
1 -0.332833 -3.47917 0.543258 
2 -3.06942 -1.53525 0.704564 
1 -0.507508 -1.15973 0.653624 
1 -2.76935 -2.8438 1.42634 
1 -3.16551 -0.388194 1.5189 
1 -0.217239 -2.91621 1.49076 
1 -0.170204 -1.38794 1.5983 
1 -0.582538 -0.135147 0.333632 
2 -0.700028 -3.66273 1.60505 
1 -0.0270579 -0.338593 1.24626 
1 -1.33633 -0.826628 0.0255735 
1 -2.06038 -3.19624 0.486322 
1 -0.935691 -1.87514 0.0311249 
1 -2.24939 -0.142314 1.12344 
2 -1.9774 -3.19002 1.4178 
1 -3.10576 -3.16401 0.437168 
1 -1.04592 -2.90825 0.0420351 
1 -0.0662088 -2.44949 0.389112 
1 -3.62975 -1.33844 1.39313 
1 0.403452 -0.596778 0.290163 
2 0.382376 -3.34332 1.03788 
1 0.651372 -3.22781 0.175282 
1 0.508545 -1.57197 0.743514 
1 0.832163 -2.54891 0.981348 
1 1.07495 -1.76965 1.68479 
1 1.15633 -0.836391 1.09356 
2 -3.31689 -3.54925 1.18926 
2 1.28627 -0.0952666 0.691545 
1 -2.36298 -1.33147 0.0137349 
1 -2.19042 -0.15512 0.0579739 
1 1.67077 -2.86885 0.437988 
1 1.62489 -1.791 0.530266 
2 1.95188 -3.31946 1.18437 
1 1.90193 -0.718425 0.38075 
1 -3.2265 1.08058 -3.48603 
1 -3.55168 0.564683 -1.40277 
1 -3.19018 1.52768 -0.756781 
1 -3.12579 0.142234 -0.305922 
1 -2.97618 1.38005 -1.81362 
1 -2.81025 0.470111 -2.39977 
1 -2.47004 0.279806 -3.48496 
1 -2.58153 0.709149 -0.978494 
1 -2.33366 1.39482 -2.77653 
1 -1.99062 0.977373 -1.78088 
1 -1.72217 1.03979 -3.63788 
1 -1.98749 0.856365 -0.0730425 
2 -1.82201 1.19967 -0.873027 
1 -1.73868 0.486195 -2.69147 
1 -1.61022 0.340835 -0.927551 
2 -1.34866 0.052286 -0.137536 
2 -1.2153 0.982921 -2.1811 
1 -1.26479 1.80178 -0.481605 
1 -0.88583 1.37014 -2.87677 
1 -1.07203 1.28641 -1.36113 
1 -1.04742 0.210659 -1.80656 
1 -3.47979 0.107911 -3.17607 
1 -0.880152 0.808569 -0.231174 
2 -0.737489 0.548948 -1.05351 
1 -0.730781 0.206257 -2.80949 
2 -0.608536 1.58703 0.119554 
1 -0.340527 0.975206 -2.0518 
2 -0.174439 0.874263 -2.97658 
1 -0.0780743 1.13545 -0.978061 
1 -0.0485746 0.15767 -1.426 
1 0.234277 0.287309 -3.55008 
1 0.114027 0.328762 -0.313788 
1 0.254542 0.240254 -2.48757 
2 0.718944 1.08986 -2.90457 
1 0.713321 1.09545 -1.9362 
1 0.885052 1.56207 -0.755248 
1 0.87628 0.525594 -1.01924 
1 1.16764 0.328054 -3.07079 
1 1.55534 1.20593 -2.60256 
1 1.15604 0.0902213 -1.99163 
2 1.67855 0.159138 -0.930587 
1 1.74023 0.948934 -0.46409 
1 1.7566 0.833709 -1.54876 
1 2.06408 0.312835 -2.5039 
1 -3.39838 0.6179 1.23515 
1 -3.13729 1.62651 1.19274 
1 -3.03813 1.06312 0.218347 
2 -2.88158 0.22758 0.584098 
2 -2.67483 0.397834 1.63907 
1 -2.3139 0.914922 1.00299 
1 -1.77865 1.58337 1.68071 
1 -1.44466 0.345243 0.679316 
2 -1.31211 0.930985 1.2977 
1 -1.35182 1.42822 0.567034 
1 -0.870679 0.1988 1.6312 
1 -0.490354 0.812916 0.796298 
1 -0.0309912 1.58134 1.29973 
1 0.142348 0.628494 1.7675 
1 0.258849 1.35826 0.163392 
1 0.550554 0.413832 0.650553 
1 0.952441 1.19944 1.24541 
2 0.924925 0.820859 -0.110546 
1 1.09036 0.150834 1.55968 
1 1.33004 1.64688 0.259183 
1 1.63537 0.683197 0.562262 
1 1.93595 -2.46935 1.43213 
1 1.89727 -0.742472 -2.56796 
1 1.90082 0.947002 1.66498 
1 1.99886 -2.85799 -2.25617 
1 2.03581 -1.3503 1.39413 
1 2.08533 0.557836 -3.59858 
1 2.06185 -0.661588 -0.643227 
2 2.06998 0.0483283 -0.0435854 
1 2.05967 -0.0654609 1.17528 
1 2.11892 -0.236722 -1.60248 
2 2.4669 1.13612 -1.15905 
1 3.79982 -0.74607 -0.502307 
2 2.37403 -2.27624 0.407725 
1 2.32475 -2.44683 -3.2191 
1 2.36499 -2.79364 -0.321139 
1 2.40086 -1.38763 -3.29067 
1 2.46079 1.51582 -1.97132 
1 2.38348 1.54405 0.641199 
1 -2.29506 1.8361 -0.227088 
1 -1.51825 1.84221 -2.15923 
2 -0.626568 1.79345 -2.04127 
1 0.122825 1.72347 -2.65152 
2 2.00405 3.90381 -2.7449 
1 1.32558 3.82854 0.985541 
1 -0.724317 0.72788 3.74173 
1 0.172104 1.36226 3.81075 
2 -1.05224 1.61092 3.79094 
1 2.39217 -3.46657 -3.47484 
2 2.48267 -0.617893 1.69561 
1 2.52174 -0.401536 -3.63601 
1 2.52492 0.353724 -0.771155 
1 -3.69453 -1.09197 -1.56132 
1 3.77741 -0.173086 -2.15143 
2 2.65019 -3.03925 -1.66334 
1 3.53768 -3.58331 -1.55036 
1 3.16979 -2.72528 -1.00946 
1 3.29444 -2.84717 -3.14797 
1 3.67913 -1.82594 -0.756273 
1 3.21365 -0.265078 -1.22012 
1 3.17971 -3.4258 -0.0668886 
1 3.00677 0.0860391 -2.82515 
2 2.77133 -2.51157 -2.47063 
1 2.88348 -0.414991 -0.0449633 
2 3.36423 -1.87603 -1.58718 
1 2.82194 -1.27594 -1.08164 
1 3.29776 -1.87738 -3.56899 
2 2.77559 -2.0456 -0.645724 
1 2.56563 -3.60619 -0.994161 
1 3.40472 -0.867157 -3.16971 
1 3.50035 -2.64191 -2.01706 
1 2.85776 -3.46381 -2.41182 
1 3.2081 -1.73699 -2.48768 
1 2.87663 -0.794512 -2.13271 
1 2.52789 -2.15077 -1.64532 
2 2.84063 -0.0396459 0.794324 
2 2.63364 -3.01713 1.7075 
1 2.68148 -3.00708 0.808605 
1 3.2745 -0.188164 1.55612 
2 3.5316 -3.00729 0.622496 
2 3.67394 -0.639474 0.898405 
1 3.5001 -3.05661 1.50366 
1 2.83665 -0.902009 0.917419 
1 2.57448 -1.493 0.0191155 
1 3.25084 -2.36163 0.0743356 
1 2.90381 -1.98595 1.08284 
1 3.58853 -1.3783 0.355335 
1 3.34692 1.66392 -3.60134 
2 3.60075 1.60592 -0.207846 
1 3.29254 1.41713 -1.27114 
1 2.70967 1.49224 -0.395153 
1 2.8651 0.550779 -1.80789 
1 3.49586 0.75543 -0.422949 
1 2.67966 1.13432 -2.92366 
1 3.6575 0.947427 -2.46145 
1 3.63545 0.116311 0.461869 
1 2.6758 1.78874 1.67811 
1 2.86925 0.737185 1.28815 
1 2.66474 0.610948 0.246711 
1 3.46274 1.29266 0.607521 
1 -3.30068 1.85727 -2.76471 
1 1.9351 1.86165 -1.09062 
1 2.10357 2.05141 -2.89765 
2 -3.20386 3.24816 -2.95069 
1 -3.13189 3.03037 -1.56723 
2 -2.96165 2.14655 -1.33844 
1 -2.59872 2.62037 -3.11992 
1 -2.81567 2.6497 -0.627122 
1 -2.52345 3.37925 -2.37042 
1 -2.53815 2.31719 -2.11527 
1 -2.49737 3.6559 -0.378595 
2 -2.30081 2.80142 -1.37007 
1 -2.11874 3.65987 -1.40145 
1 -2.08046 1.94539 -1.24869 
1 -1.61912 2.11723 -3.18538 
1 -1.62319 3.19195 -2.94285 
1 -1.75972 2.81644 -0.658465 
1 -1.60574 2.87871 -1.91522 
2 -1.19392 2.77965 -3.57794 
1 -1.01203 3.4524 -1.10806 
1 -0.86811 2.35442 -1.37683 
1 -0.751574 2.43556 -2.63542 
2 -2.33106 3.65102 -3.23622 
2 -0.897987 2.68561 -0.541835 
1 -0.543281 3.33258 -3.19488 
1 -0.415123 3.23226 -2.0362 
1 -0.474468 2.29632 -3.67267 
1 -0.278835 3.11626 -0.0853018 
1 0.00697787 2.97967 -1.09782 
1 0.155341 1.99594 -1.5969 
1 -0.231274 2.08463 -0.532582 
2 0.283485 3.5009 -2.49535 
1 0.631233 2.91007 -1.9726 
1 0.316631 2.72926 -2.99573 
1 0.717439 3.41586 -0.436304 
1 1.06839 2.57099 -1.07095 
1 1.04332 1.89099 -3.25351 
1 1.29241 2.03047 -1.97771 
1 1.25742 3.60538 -1.33575 
1 0.682231 2.42657 -0.0894406 
2 1.50932 2.92457 -1.8244 
1 1.54968 3.59657 -3.45126 
1 1.39309 2.80724 -2.7293 
2 1.45989 2.93944 -0.349406 
1 2.27936 2.53555 -1.95571 
1 2.05728 2.96281 -1.01123 
1 -3.1836 3.27054 0.352192 
1 -3.25509 2.14485 0.237554 
1 -2.9239 2.67867 1.195 
1 -2.37122 3.60072 1.25241 
2 -2.53203 2.05578 1.68457 
1 -2.15076 2.99248 0.399735 
1 -2.22401 1.98291 0.796314 
1 -1.85386 2.65756 1.51762 
2 -1.55356 3.51528 0.869226 
1 -1.413 3.58081 1.74341 
1 -1.23028 2.49343 0.295594 
1 -0.716131 3.16959 1.00697 
1 -1.24404 3.53069 0.0365397 
1 -0.958209 2.12228 1.27369 
1 -0.223225 2.27765 0.528897 
1 -0.0329923 2.57142 1.69335 
1 0.471653 3.21197 0.708262 
1 0.726253 2.21213 0.951607 
1 1.14195 2.98085 1.58138 
1 1.68926 1.98831 1.28408 
1 1.47917 2.86165 0.537305 
1 2.15598 3.60905 -1.88716 
1 2.09221 2.3268 -0.126716 
1 2.28219 3.5985 0.481468 
2 1.92561 3.22727 1.22296 
1 3.86063 2.60894 -3.42005 
1 2.45076 3.1486 -2.81038 
1 2.47811 2.61581 0.920531 
1 0.276267 3.57609 1.71769 
1 -3.60683 3.35643 -0.647473 
1 -3.66828 3.32171 1.59419 
1 3.60737 3.06841 -2.37709 
1 2.85221 3.07565 -0.315463 
1 2.80904 2.56642 -3.58503 
1 3.59581 2.32329 -0.73659 
1 3.7718 2.1722 -1.80622 
1 3.47101 3.55706 -3.30369 
1 3.09486 2.95977 -1.41824 
1 3.12054 2.13033 -2.636 
2 2.69259 2.31973 -0.820831 
1 2.72322 3.57441 1.49849 
1 3.51273 2.30543 1.21705 
1 3.29417 3.25972 0.658959 
1 3.14891 2.23305 0.218249 
1 0.817512 -3.08313 1.86103 
1 -1.82954 0.531806 1.9121 
1 1.79549 3.73558 1.95881 
1 -0.901065 -2.00262 2.09643 
1 -0.508879 -2.2571 3.03032 
1 -1.04347 -3.05908 2.15865 
1 -2.26592 -0.430267 2.19113 
1 -2.46876 -2.16911 2.45017 
1 -1.46866 -0.764332 2.98193 
2 -1.62177 -2.44164 2.40371 
1 -1.80643 -1.41056 2.07336 
1 -1.63654 -1.87686 3.07418 
1 -2.44497 -1.17088 3.11103 
1 -2.96033 -1.27998 2.20379 
1 -2.15861 -3.17106 2.30251 
1 -3.42691 -2.22887 1.97103 
1 -1.39128 -2.90458 3.14224 
2 -1.52321 -3.65306 2.61505 
2 -1.42886 -0.143216 2.32445 
2 -0.947418 -1.44041 2.75188 
1 -0.919516 -0.830466 2.09107 
1 -2.89366 -2.044 3.5253 
2 -0.722095 -3.41333 2.95753 
1 -2.98793 -2.95415 2.95919 
2 -2.21469 -2.60187 3.16209 
1 -0.0832072 -1.26761 2.68033 
1 -2.20932 -3.47824 3.42471 
1 -2.88166 -0.173325 3.07216 
1 -0.147151 -0.199972 2.3755 
1 -0.0338408 -3.14917 2.53965 
1 0.211407 -2.18275 2.17527 
1 -0.55802 -0.258933 3.35145 
1 -3.17865 -3.48706 2.09592 
1 -0.678504 -1.28118 3.57629 
1 -3.58175 -1.25545 3.23869 
1 0.4882 -1.98402 3.31643 
1 0.469807 -0.653839 3.38014 
1 0.611951 -0.787621 1.96361 
1 0.671379 -3.08922 3.35712 
2 1.01034 -1.2992 3.58585 
1 1.05637 -1.34274 2.70479 
1 1.16778 -2.42629 2.61555 
2 -2.17077 -0.485253 3.60251 
1 1.71451 -2.84631 3.43438 
1 1.80191 -0.131084 3.05645 
1 1.68715 -0.629416 2.11287 
1 1.93923 -1.212 3.23899 
2 -3.47263 0.518169 3.25299 
1 -3.53765 1.38006 2.94488 
1 -3.30024 0.371828 2.28322 
1 -2.62828 0.916196 3.12844 
1 -2.41976 1.81333 3.64802 
1 -2.69933 1.20557 2.07429 
2 -2.45202 0.370864 2.50182 
1 -1.84027 0.200037 3.08258 
1 -1.65809 1.23034 2.73798 
1 -0.910239 0.481006 2.67635 
1 -0.633137 1.50518 3.04477 
1 -0.817472 1.23449 1.94605 
1 0.11076 0.688546 2.94351 
1 0.107306 1.55383 2.34509 
1 0.865179 0.000217443 2.62736 
1 1.11786 0.78252 3.412 
1 1.05313 1.01222 2.33585 
2 1.61004 0.310405 2.27013 
1 1.85773 1.77187 2.39563 
1 2.21461 1.60908 3.58851 
1 2.0105 -1.81944 2.34475 
1 2.11071 -2.91943 2.42765 
1 2.09892 0.847514 2.81881 
2 2.20331 -2.01517 3.48604 
1 2.44822 0.143955 2.12906 
1 0.943779 1.82148 3.11139 
1 3.18081 0.649125 -3.74193 
2 3.65631 -1.54473 2.41404 
1 2.86046 -1.65462 2.9566 
1 2.95056 -1.28983 1.95705 
1 2.71863 -0.619515 2.78021 
1 3.71772 -0.620421 2.40385 
2 3.70215 -2.92732 2.41535 
1 3.02733 -3.47335 2.37298 
2 3.04561 -1.04124 3.52816 
1 3.53275 -0.267026 3.39204 
1 3.5877 -3.29363 3.33473 
1 2.99204 -2.35487 2.15066 
1 3.70255 -2.25544 2.95936 
1 2.7553 -2.67774 3.26596 
1 3.5789 1.2753 1.92468 
1 2.89407 1.57889 2.74606 
2 2.67917 1.0024 2.12036 
2 2.61542 0.192626 3.18374 
1 3.23407 0.547708 2.68098 
2 -3.3028 1.90335 -3.84119 
1 2.12271 2.72305 1.91021 
1 0.751694 -3.85548 2.62478 
1 1.8059 -3.87841 3.01996 
1 -3.00767 3.44354 3.67481 
1 -3.31711 2.19108 2.14799 
1 -2.93456 2.55106 3.13177 
2 -2.67096 3.62346 2.85382 
1 -2.62034 3.0271 2.17842 
1 -2.23083 2.08414 2.51602 
1 -2.03376 2.95931 3.55792 
1 -1.62517 2.98307 2.57854 
1 -1.41807 2.17903 3.24262 
1 -1.10795 3.48839 3.37895 
1 -0.872359 2.26367 2.31793 
2 -0.738197 2.76209 3.04726 
1 -0.57971 3.35058 2.37861 
1 -0.0447648 3.45511 3.29132 
1 0.0878581 2.47768 2.86614 
2 0.389434 2.2138 3.702 
2 0.586205 2.87185 2.25586 
1 0.816748 2.95841 3.54688 
1 0.908901 2.05452 1.99493 
1 1.38435 2.70579 2.67485 
1 1.75902 2.58117 3.71441 
1 2.4243 2.54003 2.897 
1 3.93046 3.3014 2.70802 
2 2.53676 3.35568 2.38488 
1 2.9853 3.38213 3.20997 
1 3.50465 2.37658 3.07614 
1 3.14733 2.72769 2.14499 
