ITEM: TIMESTEP
1022
ITEM: NUMBER OF ATOMS
500
ITEM: BOX BOUNDS xy xz yz pp pp pp
-3.7345 3.86147 0.126973
-3.7345 3.7345 0
-3.7345 3.7345 0
ITEM: ATOMS type xu yu zu 
1 3.29028 -1.8778 -3.56944 
1 -1.68047 -1.21483 -3.55277 
1 -2.89588 -2.04339 3.52366 
1 2.81415 -1.27837 -1.08437 
1 0.932672 1.82206 3.11381 
1 3.13352 2.72675 2.14612 
1 2.70973 -0.622527 2.77956 
1 -0.428852 3.23615 -2.0358 
1 2.8555 0.549176 -1.80824 
1 -3.1996 1.52928 -0.75556 
1 0.672187 -3.09045 3.35707 
1 0.744821 -2.99823 -0.878031 
1 -1.24188 2.49315 0.295418 
1 -0.903477 -2.00016 2.09397 
1 -2.47915 0.277463 -3.48503 
1 -2.48888 -1.18307 1.24932 
1 -1.39213 -2.90302 3.14292 
1 -0.740935 0.209642 -2.80862 
1 1.1477 -0.836189 1.0925 
1 0.366437 -0.685268 -1.81221 
1 1.5348 3.59684 -3.45232 
1 3.58192 2.32177 -0.736718 
1 -2.23556 1.98262 0.798439 
1 -1.34407 -0.825767 0.0281651 
1 3.75984 2.17253 -1.80643 
1 2.83851 3.07414 -0.315514 
1 1.08229 0.151348 1.56263 
1 1.71539 -2.84929 3.43356 
1 -0.556171 3.33392 -3.1953 
1 3.20365 -0.268005 -1.22167 
1 0.873966 -2.22282 -0.0965161 
1 -2.32437 0.915149 1.00407 
1 0.0049241 -1.58833 -1.43802 
1 1.04274 1.01103 2.33902 
1 2.09106 2.05068 -2.8963 
1 1.89549 -0.718121 0.382061 
1 2.56815 -1.49297 0.0178104 
1 1.82871 -1.85528 -2.48712 
1 -3.31061 0.371673 2.28412 
1 -0.730091 3.1693 1.00821 
1 -1.78271 -2.34992 1.54416 
1 -3.16308 -1.95677 -1.82483 
1 -2.71003 1.2055 2.07594 
1 -3.23627 1.07758 -3.4841 
1 2.66406 1.78883 1.67964 
1 0.932568 -1.97059 -1.14034 
1 0.464605 -0.664629 3.38609 
1 -0.921742 -0.831557 2.08959 
1 3.76927 -0.175547 -2.152 
1 3.26667 -0.186115 1.55647 
1 -0.879643 0.199829 1.63317 
1 0.65008 -3.22754 0.172801 
1 -1.27535 1.80186 -0.482271 
1 -0.350459 0.976014 -2.0523 
1 -2.23897 -0.503423 -2.81091 
1 3.52292 -0.268087 3.39127 
1 -0.942358 -1.80559 -1.8319 
1 3.33643 1.66303 -3.59968 
1 -0.0333731 -3.14933 2.53899 
1 -1.25612 -2.55022 -2.52827 
1 -3.02089 3.44227 3.67562 
1 -1.05873 0.2133 -1.80553 
1 -3.28818 -1.11606 -2.53568 
1 2.14142 3.60597 -1.88665 
1 -0.882825 2.26425 2.31843 
1 2.04277 2.96164 -1.01058 
1 0.898705 2.05456 1.99553 
1 -2.09271 1.94456 -1.24842 
1 1.10962 0.78447 3.41607 
1 1.89036 0.946511 1.66812 
1 3.10801 2.13049 -2.63543 
1 -0.069681 -2.44975 0.385933 
1 -1.04334 -3.0576 2.15893 
1 3.67341 -1.82495 -0.755895 
1 1.67831 1.98769 1.28444 
1 1.73162 0.94771 -0.462224 
1 3.28089 3.25977 0.658615 
1 -2.63199 3.02626 2.18074 
1 2.44031 0.144186 2.13097 
1 1.14739 0.0888108 -1.98993 
1 -2.30455 1.83792 -0.225331 
1 0.104843 0.332394 -0.310669 
1 -0.154762 -0.198384 2.37824 
1 -1.25845 3.53061 0.0365513 
1 -1.86566 2.65764 1.51871 
1 3.45798 3.55762 -3.3034 
1 -1.73151 1.03665 -3.63713 
1 2.10865 2.72343 1.91094 
1 -0.561187 -0.257177 3.35578 
1 -0.00677456 2.98081 -1.09814 
1 -0.879894 2.35537 -1.37745 
1 -1.18859 -3.16666 1.06675 
1 3.58994 -3.29421 3.33447 
1 0.884546 -1.56216 -2.13618 
1 3.39881 -0.86914 -3.16992 
1 3.62733 0.116594 0.462084 
1 -3.68308 3.32007 1.5946 
1 0.458016 3.21146 0.70759 
1 0.0760326 2.47823 2.8682 
1 0.113338 1.72538 -2.6497 
1 -2.04671 2.95916 3.5571 
1 -3.62014 3.35482 -0.645583 
1 2.26865 3.5979 0.48125 
1 -2.61193 2.618 -3.12143 
1 -2.45465 -2.16206 0.744628 
1 -1.61839 2.87936 -1.91601 
1 2.86879 -0.797317 -2.13469 
1 2.70914 3.5734 1.49818 
1 -1.16448 -2.36548 -0.879482 
1 1.87888 -1.92879 -0.680082 
1 2.36286 -2.79466 -0.322433 
1 1.74418 2.5795 3.71533 
1 3.20653 -1.73937 -2.48764 
1 2.5667 -3.60789 -0.993888 
1 2.99214 -2.35531 2.14815 
1 2.89868 -1.98465 1.08116 
1 0.802737 2.9601 3.54674 
1 -0.486102 2.29549 -3.67087 
1 -0.827788 1.23443 1.94878 
1 -2.98642 -3.07016 -3.42416 
1 -3.70096 -1.09359 -1.56233 
1 -1.66868 1.22978 2.74024 
1 -3.63426 -1.33881 1.39275 
1 2.39245 -3.468 -3.47257 
1 -0.218194 -2.91672 1.48902 
1 0.828936 -2.54942 0.977201 
1 0.248012 1.35897 0.165443 
1 -0.893815 1.37312 -2.87711 
1 2.39204 -1.3897 -3.28367 
1 -0.413628 -3.28088 -2.61285 
1 -1.52986 -1.21322 -2.49968 
1 -2.77208 -2.8451 1.42531 
1 -2.43131 -1.09525 -1.90378 
1 2.08011 2.32531 -0.126632 
1 -0.16979 -1.38853 1.59676 
1 0.542769 0.414165 0.652791 
1 3.28388 1.41505 -1.27248 
1 1.88681 -0.746481 -2.56404 
1 -2.82056 0.469895 -2.40068 
1 -3.14846 1.62643 1.19452 
1 -3.17335 -0.387902 1.52045 
1 3.53911 -3.58418 -1.54873 
1 0.714659 2.21183 0.952745 
1 1.42193 -1.95643 -3.51959 
1 -2.603 -2.44367 -0.982789 
1 -2.82849 2.64864 -0.627759 
1 2.68063 -3.00667 0.808494 
1 -1.5298 1.84316 -2.15998 
1 1.29422 -2.90856 -3.04071 
1 2.37341 1.54468 0.641118 
1 1.78133 3.73714 1.95773 
1 0.503528 -1.57279 0.738506 
1 -0.591658 -0.134358 0.334758 
1 -3.26561 2.14602 0.23914 
1 -2.53574 3.37862 -2.37168 
1 1.04154 -3.69655 -2.38622 
1 -0.234917 2.27799 0.530394 
1 -3.42775 -2.22883 1.97075 
1 2.00833 -1.82031 2.34221 
1 -1.77296 2.81636 -0.658523 
1 3.22466 0.549652 2.68323 
1 3.50059 2.30488 1.21838 
1 -2.55028 2.31646 -2.11589 
1 1.79564 -0.133477 3.05727 
1 -3.13357 0.142818 -0.305556 
1 0.144222 1.99604 -1.59556 
1 3.13805 2.23327 0.219542 
1 3.91788 3.2994 2.70877 
1 0.815295 -3.0853 1.85571 
1 0.617916 2.91123 -1.97238 
1 1.38301 2.80974 -2.72696 
1 -0.243084 2.08632 -0.531601 
1 3.84595 2.60887 -3.41784 
1 -2.59208 0.710281 -0.979488 
1 0.942309 1.19961 1.24797 
1 -3.17829 -3.48943 2.0949 
1 -3.32922 2.19161 2.14955 
1 2.11519 -2.92142 2.42853 
1 2.86021 -3.4653 -2.40978 
1 3.48754 0.756193 -0.422485 
1 3.29373 -2.84781 -3.14772 
1 -2.20958 -3.47824 3.42209 
1 -2.24219 2.08394 2.51811 
1 2.46603 2.61578 0.921526 
1 1.78332 -2.91584 -1.23506 
1 -1.45442 0.346325 0.68076 
1 3.56818 1.2758 1.92689 
1 -1.04752 -2.90791 0.0418303 
1 -3.19602 3.27186 0.355883 
1 -3.04888 1.06392 0.219446 
1 0.210459 -2.18405 2.17378 
1 1.15506 -0.539606 -1.13677 
1 2.85827 0.738346 1.28908 
1 -2.27228 -0.431152 2.19196 
1 1.31896 1.64606 0.260689 
1 -1.80929 -1.40901 2.06915 
1 2.20231 1.60724 3.59068 
1 3.58204 -1.3777 0.355615 
1 0.874413 1.55965 -0.752918 
1 -2.44731 -1.17019 3.10967 
1 3.49112 2.37731 3.07798 
1 -0.804106 -2.15712 1.05997 
1 -1.80353 -2.82119 -1.61056 
1 -2.89135 -0.17532 3.07186 
1 0.477388 -1.52269 -3.2021 
1 3.16766 -2.72459 -1.01051 
1 0.866941 0.52364 -1.01793 
1 -2.25796 -0.14217 1.12487 
1 -3.144 3.03047 -1.56754 
1 0.226726 0.286331 -3.54913 
1 2.08989 0.84636 2.82134 
1 1.44064 -0.614204 -3.53617 
1 -0.678647 -1.27895 3.57647 
1 0.243958 0.236795 -2.48527 
1 -0.825115 -1.32013 -0.834833 
1 -0.0370913 -0.337609 1.24739 
1 3.17831 -3.42624 -0.0676837 
1 -1.42805 3.58226 1.74376 
1 2.51419 -0.405623 -3.63541 
1 3.5014 -2.6435 -2.01679 
1 1.128 2.98199 1.58175 
1 0.703381 3.41409 -0.435431 
1 -3.53039 -2.27406 0.903837 
1 0.753342 -3.85483 2.62258 
1 -1.38469 -3.59911 -2.18509 
1 1.62764 0.68421 0.565071 
1 -3.54732 1.38255 2.94818 
1 3.69992 -2.25616 2.95895 
1 -1.36311 1.42843 0.567233 
1 -0.586927 -0.701372 -2.27159 
1 2.4103 2.54089 2.89778 
1 -1.42856 2.17988 3.24249 
1 1.84639 1.77115 2.39802 
1 0.488322 -1.98975 3.30478 
1 2.87612 -0.414418 -0.0446059 
1 -1.32948 -0.781695 -1.5725 
1 3.03097 -3.47568 2.37182 
1 -1.86288 -1.70489 -1.2673 
1 2.85645 -1.65631 2.95458 
1 -3.48834 0.104156 -3.17654 
1 2.11108 -0.239121 -1.60127 
1 1.19956 -0.034722 -0.176255 
1 2.97191 3.38242 3.21071 
1 -1.07984 -2.2209 -3.54935 
1 0.0462025 -2.25628 -2.29522 
1 -3.58749 -1.25614 3.23825 
1 -3.39752 -3.08657 -0.59162 
1 -2.00515 -0.70626 -0.81384 
1 -2.8405 -1.37975 -0.951802 
1 -2.38559 3.59962 1.25207 
1 -0.0420227 1.58096 1.30072 
1 -0.0904812 1.13725 -0.976064 
1 0.321422 -2.56005 -3.2632 
1 1.06929 -1.77021 1.67831 
1 -0.5006 0.813161 0.797359 
1 -1.99913 0.856671 -0.0724785 
1 -3.09122 -2.21683 -0.0679922 
1 -3.10681 -3.16264 0.436832 
1 1.80693 -3.87942 3.0191 
1 1.58344 -3.63297 -0.388796 
1 0.856703 -0.00109567 2.63505 
1 -1.74966 0.485816 -2.69128 
1 -1.63812 -1.87557 3.07266 
1 -1.80826 -3.22119 -0.633671 
1 0.368738 -3.65817 -3.26366 
1 -2.16368 2.99099 0.399628 
1 0.703078 1.0938 -1.93505 
1 1.16989 -2.43292 2.60942 
1 1.93346 -2.47095 1.43293 
1 -2.19915 -0.15508 0.0600228 
1 -2.97553 -0.340896 -1.27271 
1 1.6807 -0.628213 2.11214 
1 2.99811 0.0840419 -2.82527 
1 -2.94808 2.54824 3.13455 
1 -1.63002 2.11782 -3.18577 
1 2.88268 1.57963 2.74806 
1 1.27864 2.03003 -1.979 
1 0.1018 0.690393 2.94529 
1 -0.512655 -2.25658 3.02756 
1 -0.97012 2.12145 1.27434 
1 -0.0852373 -1.2684 2.67815 
1 -0.127227 -2.40852 -0.717242 
1 0.305146 2.73125 -2.99498 
1 3.45232 1.29302 0.609185 
1 1.03271 1.89111 -3.24963 
1 0.163103 1.36245 3.81306 
1 -0.0607137 0.161665 -1.42299 
1 -0.795416 -0.259156 -0.738925 
1 -2.0849 -2.50342 -3.45442 
1 -0.594117 3.35205 2.37871 
1 -2.18716 -2.09658 -2.25089 
1 -0.0449792 2.57036 1.69378 
1 -0.763416 2.43801 -2.63404 
1 -0.891544 0.808961 -0.229228 
1 2.26612 2.53344 -1.95427 
1 -1.93662 -2.28071 -0.151723 
1 1.66978 -2.86946 0.437441 
1 -2.96651 -1.27938 2.2049 
1 0.394478 -0.595765 0.291554 
1 -1.85039 0.197595 3.08174 
1 -1.63657 3.19215 -2.94423 
1 2.05202 -0.0655762 1.17721 
1 3.59501 3.06856 -2.37687 
1 2.05498 0.309055 -2.50334 
1 -2.15867 -3.16891 2.30075 
1 -2.13343 3.65912 -1.40117 
1 -0.514329 -1.15923 0.654882 
1 0.798502 -0.635324 -2.73402 
1 2.75582 -2.67941 3.26923 
1 -0.292831 3.11558 -0.0850073 
1 -3.56164 0.561743 -1.40282 
1 -0.0582323 3.45805 3.29059 
1 -3.40909 0.61805 1.23651 
1 -1.02657 3.45347 -1.1081 
1 -0.33347 -3.47981 0.542467 
1 2.07658 0.553924 -3.59683 
1 1.93209 -1.21583 3.24122 
1 -1.7895 1.58327 1.68281 
1 1.05422 2.56865 -1.07071 
1 1.62004 -1.79243 0.52973 
1 -2.98844 1.37918 -1.81343 
1 -3.31301 1.85583 -2.76497 
1 -2.98818 -2.95272 2.95575 
1 -1.3126 -0.620947 1.124 
1 -2.00105 0.978298 -1.78164 
1 1.05517 -1.34806 2.69278 
1 2.65613 0.61181 0.246497 
1 3.08145 2.95902 -1.41865 
1 2.02928 -1.34877 1.3929 
1 -2.09313 -0.0833044 -1.81633 
1 -2.42818 1.81086 3.64667 
1 -2.51241 3.65545 -0.377666 
1 -1.63638 2.9833 2.57843 
1 -3.4952 -3.44451 -2.57033 
1 -2.34451 1.39515 -2.77716 
1 1.37068 2.70587 2.67584 
1 0.214131 -3.45933 -1.73972 
1 1.54665 1.20371 -2.60012 
1 0.133077 0.628838 1.76884 
1 0.670469 2.42509 -0.0883352 
1 2.51698 0.353064 -0.771146 
1 1.15758 0.326737 -3.06756 
1 2.79454 2.56442 -3.58503 
1 -2.51603 -1.57029 -3.07377 
1 -0.464155 -3.08558 -3.72398 
1 -2.27592 -3.13465 -2.60637 
1 -2.6392 0.913778 3.1291 
1 -1.62165 0.340251 -0.926147 
1 3.17219 0.648031 -3.73981 
1 0.260053 3.5751 1.71673 
1 3.79243 -0.745249 -0.502681 
1 1.74795 0.831525 -1.54714 
1 -2.37055 -1.33198 0.0159745 
1 -2.96057 -3.06366 -1.74792 
1 2.83028 -0.900716 0.917552 
1 0.0683682 -1.52758 -0.219033 
1 0.0972679 1.55493 2.3458 
1 1.46673 2.86016 0.537713 
1 -0.941513 -1.87413 0.0316963 
1 -0.731845 0.729547 3.74285 
1 -0.143534 -0.648507 -3.19916 
1 -0.317961 -3.44699 -0.675541 
1 1.99889 -2.86297 -2.2562 
1 0.185783 -0.653866 -0.760166 
1 1.92229 1.85979 -1.09059 
1 2.45076 1.51454 -1.97038 
1 -1.08315 1.2877 -1.36275 
1 1.13117 -1.18273 -0.267526 
1 -1.83921 0.531796 1.91334 
1 1.31125 3.82763 0.982761 
1 -1.46994 -0.763806 2.98132 
1 2.52524 -2.15191 -1.65002 
1 3.64698 0.945269 -2.46225 
1 2.94516 -1.29064 1.95522 
1 -2.0615 -3.19692 0.485556 
1 2.70099 1.49327 -0.39589 
1 0.987968 -2.67234 -1.97837 
1 3.24716 -2.36161 0.0739654 
1 -0.643131 -2.86102 -1.64373 
1 -0.643061 1.50594 3.04544 
1 3.70895 -0.621553 2.40346 
1 -1.61456 -1.56424 0.770471 
1 2.44172 3.14694 -2.80812 
1 3.50122 -3.05821 1.5022 
1 -0.583687 -1.61396 -2.86174 
1 -0.919932 0.480116 2.67935 
1 -3.33702 -2.23318 -2.86325 
1 -1.43751 -0.180819 -3.4822 
1 -2.9859 -0.742775 -3.52261 
1 -1.12157 3.48947 3.37868 
1 1.24178 3.60383 -1.33524 
1 -3.05566 -0.666516 0.450891 
1 -1.41009 -3.30957 -3.26755 
1 2.3227 -2.44863 -3.21546 
1 0.605773 -0.782391 1.96349 
1 2.66852 1.13308 -2.9228 
1 -2.46945 -2.16672 2.44914 
1 1.82285 -1.29362 -1.56058 
1 -2.9363 2.67811 1.19728 
1 2.05541 -0.663771 -0.642235 
2 1.67044 0.157824 -0.929126 
2 0.446164 -3.05553 -2.55238 
2 -0.988403 -0.855465 -3.11266 
2 3.66687 -0.638684 0.900047 
2 1.91172 3.22689 1.22294 
2 -3.21635 3.24722 -2.95027 
2 1.98805 3.89946 -2.74485 
2 -0.18251 0.874698 -2.9746 
2 -1.61709 -1.50735 -0.448756 
2 1.95203 -3.3204 1.18396 
2 -1.20563 2.78033 -3.57846 
2 -0.637833 1.79424 -2.0418 
2 0.252579 -2.55239 -1.4943 
2 2.60863 0.189841 3.18534 
2 -3.07435 -1.53597 0.70282 
2 -3.48265 0.517722 3.25293 
2 -2.34424 3.65352 -3.23706 
2 1.24335 -0.779743 -1.97686 
2 1.27979 -0.0941229 0.693838 
2 -1.35879 0.0529473 -0.135789 
2 -1.56772 3.51489 0.869316 
2 2.45782 1.13576 -1.15847 
2 2.06245 0.0481204 -0.0432479 
2 -0.700873 -3.66184 1.60514 
2 2.77195 -2.5159 -2.46964 
2 1.31444 -1.30358 -2.94228 
2 3.03901 -1.04394 3.52801 
2 2.64874 -3.04074 -1.66238 
2 -0.462066 -0.840214 -0.168151 
2 1.44576 2.93688 -0.348949 
2 0.5729 2.87155 2.25639 
2 -3.31138 1.90206 -3.83318 
2 1.63349 -2.15506 -1.67004 
2 -1.22568 0.984229 -2.18338 
2 -2.9735 2.14625 -1.33949 
2 -0.750576 0.551065 -1.05164 
2 -2.89071 0.228239 0.585374 
2 -2.46247 0.369346 2.50184 
2 2.77048 -2.0464 -0.64589 
2 3.36083 -1.87849 -1.58706 
2 -1.67248 -1.90788 -2.97852 
2 3.53023 -3.00772 0.621099 
2 -1.43485 -0.144521 2.32226 
2 2.37073 -2.27679 0.406156 
2 2.20828 -2.01418 3.49139 
2 0.932514 -2.17055 -2.74815 
2 -1.3214 0.932118 1.29906 
2 -1.42372 -0.319716 -2.424 
2 -0.722272 -3.41104 2.95733 
2 2.66914 1.0029 2.12212 
2 0.108018 -1.25154 -2.44142 
2 1.49588 2.92197 -1.82141 
2 -2.68478 0.398488 1.63951 
2 -2.31302 2.80044 -1.37067 
2 -2.56111 -2.92759 -0.227897 
2 -2.54344 2.05556 1.68667 
2 -1.56641 -2.45154 0.653498 
2 -3.31743 -3.55316 1.1864 
2 -1.52392 -3.6513 2.61558 
2 0.269893 3.50327 -2.49471 
2 -3.47551 -2.52552 -1.24852 
2 -2.21581 -2.60133 3.15985 
2 3.59195 1.60621 -0.205511 
2 1.0242 -1.3022 3.56847 
2 -2.77781 -0.641425 -0.422469 
2 -2.85797 -0.389507 -2.18197 
2 0.378737 2.21429 3.70515 
2 -2.02077 -0.802066 0.609585 
2 0.710172 1.0905 -2.90186 
2 3.70332 -2.92756 2.41389 
2 -0.498764 -2.50157 -2.95967 
2 -0.619703 1.5879 0.120007 
2 -3.10759 -3.69977 -1.13856 
2 3.65061 -1.54618 2.41309 
2 -0.209278 -1.9561 -3.63156 
2 -1.97915 -3.19012 1.4158 
2 0.38214 -3.34496 1.03648 
2 1.48489 -2.73752 -0.430372 
2 -2.17703 -0.486267 3.60355 
2 -2.68709 3.62425 2.85415 
2 2.67883 2.31954 -0.822644 
2 -1.83193 1.19936 -0.872696 
2 0.0888545 -2.14687 1.25218 
2 -3.39803 -1.50486 -3.36954 
2 0.915673 0.822132 -0.109031 
2 -3.22519 -1.39037 -0.18308 
2 -0.749847 2.76321 3.04792 
2 -1.07427 -1.41424 1.44931 
2 2.47686 -0.617526 1.69693 
2 -0.431072 -0.737845 -1.40078 
2 -1.06462 1.61027 3.79038 
2 2.635 -3.01917 1.70696 
2 2.52334 3.35631 2.38438 
2 2.83232 -0.0383118 0.794675 
2 1.60094 0.309096 2.27361 
2 -1.62225 -2.44054 2.40307 
2 -0.94833 -1.44045 2.75224 
2 -0.911213 2.68618 -0.542569 
2 -2.64722 -1.96969 1.60353 
2 -3.59408 -2.52731 -3.70985 
