ITEM: TIMESTEP
44
ITEM: NUMBER OF ATOMS
500
ITEM: BOX BOUNDS xy xz yz pp pp pp
-3.7345 3.74944 0.014938
-3.7345 3.7345 0
-3.7345 3.7345 0
ITEM: ATOMS type xu yu zu 
1 3.2071 -1.89908 -3.58393 
1 -1.64429 -1.18887 -3.58583 
1 -2.96022 -2.08352 3.42333 
1 2.8051 -1.29098 -1.00139 
1 0.892478 2.06633 2.99305 
1 3.21787 2.43712 2.22574 
1 2.63423 -0.691964 2.80842 
1 -0.640103 3.26497 -2.04852 
1 2.73266 0.674746 -1.72548 
1 -3.12916 1.618 -0.653594 
1 0.851924 -3.12768 3.39056 
1 0.725065 -3.0062 -0.959104 
1 -1.26912 2.48653 0.232379 
1 -1.02511 -1.97003 2.13897 
1 -2.63842 0.257467 -3.44573 
1 -2.55175 -1.20087 1.25957 
1 -1.44587 -2.89301 3.17577 
1 -0.752202 0.328122 -2.8613 
1 1.03021 -0.872102 1.17265 
1 0.345245 -0.493877 -1.83992 
1 1.32477 3.61517 -3.42644 
1 3.56072 2.34403 -0.829589 
1 -2.02564 1.98669 0.858943 
1 -1.40813 -0.746567 0.0979171 
1 3.66344 2.19788 -1.85413 
1 2.83917 3.01475 -0.367207 
1 1.0871 0.144763 1.59042 
1 1.58719 -2.38663 3.15568 
1 -0.669949 3.42584 -3.12388 
1 3.15709 -0.273828 -1.28775 
1 0.797817 -2.22609 -0.14581 
1 -2.1305 0.957555 0.925142 
1 -0.0225816 -1.3893 -1.43389 
1 1.03262 1.08655 2.30045 
1 1.84759 1.8359 -2.88063 
1 1.8253 -0.763327 0.421499 
1 2.48213 -1.55252 0.0617596 
1 1.72387 -1.92964 -2.40992 
1 -3.24237 0.339553 2.20905 
1 -0.900735 3.15715 1.03357 
1 -1.83656 -2.29989 1.55963 
1 -3.19555 -2.0034 -1.79431 
1 -2.70907 1.25307 2.17619 
1 -3.35102 1.08826 -3.48022 
1 2.67682 1.68662 1.7162 
1 0.846699 -1.92846 -1.15236 
1 0.485889 -0.680478 3.34761 
1 -0.87365 -0.923579 2.04859 
1 3.73574 -0.291523 -2.18948 
1 3.22415 -0.203259 1.52545 
1 -0.862605 0.0971887 1.58178 
1 0.501747 -3.21043 0.0553672 
1 -1.19614 1.74185 -0.537205 
1 -0.410952 1.09348 -2.20956 
1 -2.26349 -0.549928 -2.84967 
1 3.41467 -0.323212 3.4238 
1 -0.933591 -1.77197 -1.79257 
1 3.19329 1.62488 -3.50942 
1 0.0281379 -3.15027 2.68276 
1 -1.29774 -2.44469 -2.51263 
1 -3.27086 3.38985 3.68222 
1 -1.11409 0.274249 -1.86306 
1 -3.30464 -1.21654 -2.5395 
1 1.90519 3.51009 -1.80039 
1 -1.0164 2.34294 2.3026 
1 1.8366 2.91143 -0.874083 
1 0.876649 2.12692 1.91431 
1 -2.21968 1.89971 -1.22592 
1 0.977781 1.07436 3.39846 
1 1.91075 0.880339 1.68456 
1 2.8679 2.00486 -2.53266 
1 -0.168434 -2.42603 0.32889 
1 -0.970418 -3.02523 2.19568 
1 3.66019 -1.87092 -0.758578 
1 1.71941 1.88903 1.28778 
1 1.67572 0.838227 -0.453137 
1 3.26447 3.55182 0.791947 
1 -2.65878 3.06212 2.16266 
1 2.46915 0.11085 2.18494 
1 1.18093 0.224876 -1.94832 
1 -2.18725 1.89499 -0.161816 
1 0.12517 0.457919 -0.255186 
1 -0.206983 -0.198365 2.39594 
1 -1.39154 3.58273 0.0437803 
1 -1.82375 2.64149 1.63603 
1 3.29131 3.59603 -3.18909 
1 -1.91542 1.05914 -3.64096 
1 2.2135 2.64008 1.85153 
1 -0.550828 -0.157131 3.39118 
1 -0.120199 3.06456 -1.13453 
1 -1.0098 2.40294 -1.44194 
1 -1.21972 -3.11808 1.10777 
1 3.50254 -3.29079 3.4236 
1 0.832266 -1.43477 -2.09298 
1 3.31954 -0.895815 -3.11583 
1 3.55995 0.0512375 0.427 
1 -3.63034 3.03382 1.55659 
1 0.203327 3.1665 0.80807 
1 -0.087835 2.58704 2.80742 
1 -0.113808 1.95812 -2.81542 
1 -2.21752 2.92525 3.58075 
1 -3.62161 3.33534 -0.529 
1 2.21187 3.60867 0.264005 
1 -2.88648 2.59694 -3.15586 
1 -2.51017 -2.18104 0.777268 
1 -1.74997 2.92931 -1.97735 
1 2.82511 -0.985418 -2.03897 
1 2.92701 3.41834 1.80379 
1 -1.16839 -2.31269 -0.825542 
1 1.8228 -1.93763 -0.695906 
1 2.29737 -2.81998 -0.326612 
1 1.57685 2.67629 3.62011 
1 3.21069 -1.82902 -2.5187 
1 2.518 -3.66313 -0.990546 
1 2.8542 -2.45434 2.12051 
1 2.8252 -2.03075 1.06701 
1 0.726728 3.14479 3.26166 
1 -0.537143 2.50796 -3.68306 
1 -0.761391 1.13377 1.89027 
1 -3.02395 -3.0927 -3.50268 
1 -3.70982 -1.12835 -1.54273 
1 -1.83649 1.13011 2.76983 
1 -3.67739 -1.40145 1.39468 
1 2.29945 -3.47079 -3.29739 
1 -0.195651 -2.93679 1.39009 
1 0.699952 -2.57361 0.88072 
1 0.327691 1.37934 0.299216 
1 -1.14086 1.47271 -2.96284 
1 2.35635 -1.36492 -3.2912 
1 -0.463034 -3.17545 -2.58244 
1 -1.50225 -1.21372 -2.52736 
1 -2.83772 -2.8502 1.47943 
1 -2.43039 -1.13025 -1.92529 
1 2.12262 2.33408 0.000998116 
1 0.0159226 -1.32719 1.60934 
1 0.552355 0.382532 0.691407 
1 3.48965 1.35806 -1.24102 
1 1.90915 -0.846566 -2.52494 
1 -2.91796 0.434716 -2.39453 
1 -2.97962 1.49423 1.19026 
1 -3.24855 -0.465395 1.52608 
1 3.5637 -3.60091 -1.42448 
1 0.789503 2.26302 0.831522 
1 1.38427 -1.90611 -3.42651 
1 -2.64916 -2.44191 -0.937854 
1 -2.81003 2.6469 -0.583735 
1 2.58877 -3.06868 0.824124 
1 -1.70091 1.87686 -2.16321 
1 1.22952 -2.87785 -3.0266 
1 2.49737 1.55993 0.651124 
1 1.89959 3.62519 1.77391 
1 0.425114 -1.58138 0.657029 
1 -0.532342 -0.12875 0.347838 
1 -3.17733 2.09042 0.301053 
1 -2.68952 3.36489 -2.37696 
1 0.957202 -3.72312 -2.37633 
1 -0.270782 2.23984 0.495308 
1 -3.55662 -2.28325 2.00566 
1 1.93431 -1.89769 2.25576 
1 -1.74746 2.78753 -0.706553 
1 3.31346 0.51338 2.7334 
1 3.587 2.02126 1.19664 
1 -2.68505 2.32381 -2.11891 
1 1.7452 -0.164404 3.09659 
1 -3.20559 0.119806 -0.373729 
1 -0.0653849 1.98462 -1.67924 
1 3.23278 2.17889 0.150491 
1 3.64459 3.32563 2.71239 
1 1.04562 -3.27571 1.51772 
1 0.360238 2.87415 -2.1002 
1 1.40094 2.81047 -2.77128 
1 -0.0251724 2.19307 -0.534727 
1 3.53153 2.60045 -3.15155 
1 -2.62518 0.767875 -0.941142 
1 0.955588 1.18556 1.22587 
1 -3.28012 -3.57475 2.05033 
1 -3.24452 2.14928 2.07947 
1 1.91726 -2.9699 2.32845 
1 2.8588 -3.49124 -2.27964 
1 3.39798 0.654183 -0.48301 
1 3.24575 -2.82342 -3.07258 
1 -2.27881 -3.53011 3.35382 
1 -2.23272 2.12277 2.55608 
1 2.76811 2.6247 0.968447 
1 1.76307 -2.94218 -1.25884 
1 -1.44896 0.217388 0.685589 
1 3.61966 1.2333 1.97677 
1 -1.1122 -2.83727 0.0875217 
1 -3.26596 3.19504 0.469398 
1 -2.92968 0.997779 0.199798 
1 0.00645552 -2.22323 2.12975 
1 1.09658 -0.628503 -1.13732 
1 2.89219 0.736989 1.26572 
1 -2.37709 -0.385602 2.19102 
1 1.42251 1.54746 0.289432 
1 -1.9028 -1.34288 2.13323 
1 1.91929 1.68085 3.48001 
1 3.52472 -1.41126 0.343081 
1 0.778689 1.42198 -0.666079 
1 -2.4702 -1.13903 3.14871 
1 3.38157 2.44646 3.29228 
1 -0.84024 -2.11152 1.09765 
1 -1.85702 -2.72945 -1.61039 
1 -3.03835 -0.234931 3.06287 
1 0.46211 -1.41477 -3.26894 
1 3.11995 -2.7446 -0.983377 
1 0.829998 0.410126 -0.997728 
1 -2.42851 -0.0462388 1.08699 
1 -3.1962 3.03625 -1.48511 
1 0.106614 0.552896 -3.53856 
1 2.02819 0.841686 2.77394 
1 1.45598 -0.815688 -3.5237 
1 -0.615929 -1.18417 3.60018 
1 0.282333 0.365342 -2.50892 
1 -0.89071 -1.25256 -0.834778 
1 0.0636452 -0.324488 1.29989 
1 3.13748 -3.43542 -0.125067 
1 -1.55802 3.63335 1.77332 
1 2.45183 -0.339854 -3.5881 
1 3.47358 -2.683 -1.97355 
1 0.998059 3.10096 1.55334 
1 0.577831 3.28115 -0.296075 
1 -3.59836 -2.32566 0.927066 
1 0.965667 -3.68204 2.46781 
1 -1.44489 -3.51716 -2.17816 
1 1.63228 0.580969 0.606654 
1 -3.54515 1.57026 2.99818 
1 3.57098 -2.33722 2.97611 
1 -1.20668 1.42911 0.505988 
1 -0.607033 -0.602186 -2.2993 
1 2.38545 2.50985 2.91099 
1 -1.49174 2.18221 3.32299 
1 1.8104 1.7994 2.38047 
1 0.462723 -2.12259 3.27655 
1 2.80899 -0.488465 -0.0368412 
1 -1.3571 -0.733583 -1.59896 
1 2.82741 -3.41397 2.58971 
1 -1.87744 -1.69188 -1.23919 
1 2.76997 -1.71436 2.93697 
1 -3.68393 0.132609 -3.14991 
1 2.09121 -0.235757 -1.65516 
1 1.18086 -0.0838523 -0.152582 
1 2.78209 3.35478 3.39168 
1 -1.10717 -2.12907 -3.54107 
1 0.0226952 -2.18493 -2.24305 
1 -3.65849 -1.29011 3.24377 
1 -3.41943 -3.07988 -0.538239 
1 -2.00859 -0.719849 -0.788053 
1 -2.85809 -1.39639 -0.946571 
1 -2.5301 3.6118 1.22795 
1 0.0180259 1.6388 1.32675 
1 -0.246172 1.23225 -0.904698 
1 0.289645 -2.46652 -3.21811 
1 0.984422 -1.8572 1.57971 
1 -0.443701 0.795053 0.860956 
1 -1.90997 0.876838 -0.116941 
1 -3.14519 -2.20888 -0.0204667 
1 -3.15812 -3.19863 0.484718 
1 1.82855 -3.71283 3.10713 
1 1.4763 -3.60273 -0.451205 
1 0.807566 0.172631 2.7575 
1 -1.82464 0.485292 -2.73444 
1 -1.71091 -1.89023 3.04603 
1 -1.84138 -3.1612 -0.63271 
1 0.319035 -3.52078 -3.25129 
1 -2.20349 2.96232 0.391485 
1 0.581391 1.12424 -1.72514 
1 0.933773 -2.61255 2.35855 
1 1.85057 -2.51855 1.34738 
1 -2.2849 -0.103837 0.0398921 
1 -2.951 -0.398743 -1.29291 
1 1.71828 -0.696161 2.1729 
1 2.80615 -0.0344568 -2.59883 
1 -3.07878 2.59519 3.03507 
1 -1.91091 2.19353 -3.1611 
1 2.85718 1.52984 2.83713 
1 0.908744 1.95954 -2.29968 
1 -0.0835954 0.730188 2.89859 
1 -0.575028 -2.24847 3.03234 
1 -0.965241 2.09166 1.27871 
1 -0.0868841 -1.30781 2.69097 
1 -0.121609 -2.3611 -0.788123 
1 0.36015 2.9039 -3.16675 
1 3.52299 1.19169 0.469154 
1 0.883223 1.95496 -3.38062 
1 -0.00806697 1.57917 3.59452 
1 -0.154755 0.312919 -1.42981 
1 -0.844001 -0.213305 -0.707273 
1 -2.13039 -2.49011 -3.5188 
1 -0.722138 3.41879 2.42051 
1 -2.30042 -2.10269 -2.35899 
1 -0.0941011 2.62445 1.72434 
1 -1.02095 2.52619 -2.70449 
1 -0.876477 0.740473 -0.196654 
1 1.85314 2.38718 -1.88539 
1 -1.96801 -2.24095 -0.121046 
1 1.54639 -2.88693 0.366283 
1 -3.0438 -1.3027 2.25082 
1 0.394448 -0.603646 0.305155 
1 -2.01243 0.118246 3.142 
1 -1.79482 3.30524 -2.98087 
1 2.03493 -0.150501 1.2435 
1 3.54166 3.1574 -2.24199 
1 1.78196 0.143317 -2.79209 
1 -2.23766 -3.22643 2.30903 
1 -2.2389 3.63788 -1.35851 
1 -0.690675 -1.05054 0.867346 
1 0.868163 -0.508366 -2.73143 
1 2.59494 -2.72758 3.34917 
1 -0.447253 3.12164 -0.0922613 
1 -3.5317 0.4521 -1.45119 
1 -0.229195 3.48461 3.38183 
1 -3.45096 0.553157 1.19702 
1 -1.14044 3.5722 -1.1316 
1 -0.413541 -3.49004 0.520097 
1 1.9625 0.668269 -3.67031 
1 1.83105 -1.30146 3.14023 
1 -1.72101 1.52837 1.777 
1 0.880869 2.38235 -1.28644 
1 1.52168 -1.82977 0.537036 
1 -3.05176 1.37834 -1.77932 
1 -3.44605 1.7902 -2.7349 
1 -3.09823 -3.00968 2.89505 
1 -1.60747 -0.640356 1.33534 
1 -2.06413 0.954062 -1.803 
1 0.977477 -1.55052 2.58686 
1 2.61801 0.594405 0.232446 
1 2.80004 2.85492 -1.4864 
1 1.95884 -1.35347 1.36865 
1 -2.13482 -0.099088 -1.88946 
1 -2.61354 1.81257 3.57296 
1 -2.60377 3.68025 -0.295109 
1 -1.72622 3.04638 2.65709 
1 -3.46441 -3.38474 -2.57988 
1 -2.47472 1.36406 -2.76448 
1 1.45815 2.86174 2.52895 
1 0.127108 -3.49887 -1.75523 
1 1.13548 0.991181 -2.90753 
1 0.168728 0.639433 1.80243 
1 1.05347 2.37218 -0.223789 
1 2.45757 0.270404 -0.765295 
1 1.03741 0.123638 -3.59545 
1 2.52832 2.46341 -3.47976 
1 -2.55831 -1.5438 -3.22408 
1 -0.484533 -2.99715 -3.69722 
1 -2.34525 -3.14425 -2.66523 
1 -2.82059 0.817231 3.133 
1 -1.70728 0.293547 -0.988449 
1 3.02525 0.612776 -3.71243 
1 0.142356 3.64576 1.82029 
1 3.7264 -0.762566 -0.526717 
1 1.71183 1.21486 -1.90629 
1 -2.42454 -1.32271 0.0209828 
1 -2.94773 -3.08912 -1.71701 
1 2.78809 -0.939666 0.932568 
1 0.0526279 -1.45787 -0.319611 
1 0.0841622 1.63336 2.38921 
1 1.75398 2.84608 0.858951 
1 -0.929313 -1.75039 0.0710295 
1 -0.905411 0.808504 3.67158 
1 -0.0828767 -0.488497 -3.19397 
1 -0.316555 -3.40502 -0.643567 
1 1.95082 -2.99503 -2.28658 
1 0.144463 -0.50338 -0.742994 
1 1.74315 1.82754 -0.911319 
1 2.6031 1.76389 -1.52894 
1 -1.12213 1.32817 -1.48092 
1 1.10348 -1.20822 -0.250742 
1 -1.82094 0.470266 1.82171 
1 1.14798 3.63172 0.596032 
1 -1.42649 -0.722795 2.94091 
1 2.48653 -2.1519 -1.63402 
1 3.54449 0.897061 -2.4002 
1 2.89414 -1.38559 1.94705 
1 -2.09336 -3.16636 0.511901 
1 2.64932 1.45115 -0.463638 
1 0.975367 -2.64765 -1.96499 
1 3.18653 -2.39312 0.08416 
1 -0.717282 -2.86696 -1.59849 
1 -0.837926 1.49008 2.88066 
1 3.61206 -0.636772 2.40565 
1 -1.69181 -1.53816 0.741247 
1 2.47268 3.03708 -2.59022 
1 3.41285 -3.12182 1.51083 
1 -0.528287 -1.53013 -2.85862 
1 -1.09536 0.370365 2.62628 
1 -3.30024 -2.27364 -2.87 
1 -1.45511 -0.163795 -3.47929 
1 -3.13268 -0.71135 -3.4804 
1 -1.27415 3.53554 3.45897 
1 0.948489 3.46357 -1.28645 
1 -3.1173 -0.694484 0.434836 
1 -1.40769 -3.20999 -3.2355 
1 2.27672 -2.42101 -3.15136 
1 0.668232 -0.674813 2.14774 
1 2.50917 0.996254 -2.77525 
1 -2.53261 -2.20953 2.38419 
1 1.8161 -1.28567 -1.55306 
1 -2.80797 2.56868 1.18683 
1 1.99437 -0.706226 -0.635901 
2 1.62688 0.0603056 -0.940155 
2 0.404848 -3.0098 -2.51613 
2 -0.941049 -0.792162 -3.12686 
2 3.61985 -0.692252 0.897261 
2 2.42763 3.42385 1.09138 
2 -3.38986 3.27533 -2.92302 
2 1.80436 3.64681 -2.66634 
2 -0.36458 1.13749 -3.11765 
2 -1.64127 -1.46092 -0.396912 
2 1.77994 -3.38295 1.03158 
2 -1.34721 2.79544 -3.5203 
2 -0.809829 1.86802 -2.16532 
2 0.18687 -2.64838 -1.54393 
2 2.57562 0.164724 3.11522 
2 -3.13433 -1.568 0.694181 
2 -3.5665 0.415321 3.44432 
2 -2.5605 3.61922 -3.28641 
2 1.27419 -0.662027 -1.97179 
2 1.23491 -0.172241 0.728915 
2 -1.46076 0.0885704 -0.1748 
2 -1.69162 3.56901 0.887301 
2 2.18872 1.06618 -1.13864 
2 2.03627 -0.00755145 -0.0155712 
2 -0.710264 -3.65193 1.5992 
2 2.71331 -2.5626 -2.40361 
2 1.24057 -1.29341 -2.83669 
2 2.9489 -1.08672 3.55454 
2 2.57134 -3.0328 -1.60366 
2 -0.553252 -0.875955 -0.0985539 
2 1.5471 3.07729 -0.0116037 
2 0.574717 2.95446 2.33098 
2 -3.45531 2.01832 -3.65411 
2 1.59527 -2.14138 -1.56331 
2 -1.31252 1.01716 -2.26558 
2 -3.10156 2.16732 -1.32312 
2 -0.88802 0.60606 -1.05728 
2 -3.02902 0.178883 0.498396 
2 -2.40583 0.465772 2.45666 
2 2.71085 -2.07391 -0.622633 
2 3.32731 -1.89366 -1.59045 
2 -1.75956 -1.87499 -3.02201 
2 3.45129 -3.05462 0.620497 
2 -1.48731 -0.2879 2.1557 
2 2.26549 -2.33922 0.432725 
2 2.22328 -1.96165 3.5754 
2 0.867612 -2.11756 -2.671 
2 -1.28786 0.899573 1.23121 
2 -1.45362 -0.297572 -2.47806 
2 -0.736121 -3.36394 3.01241 
2 2.73594 0.939828 2.1678 
2 0.14864 -1.05043 -2.51186 
2 1.20884 2.96244 -1.93705 
2 -2.66559 0.652411 1.55695 
2 -2.36285 2.76004 -1.3671 
2 -2.59709 -2.89873 -0.171175 
2 -2.44918 1.98437 1.7084 
2 -1.61893 -2.41953 0.697428 
2 -3.42506 -3.66618 1.17371 
2 -1.52376 -3.58965 2.63848 
2 0.0405716 3.54282 -2.54954 
2 -3.51194 -2.5847 -1.23412 
2 -2.30787 -2.66492 3.10448 
2 3.5253 1.53453 -0.36259 
2 0.981185 -1.40474 3.45654 
2 -2.81173 -0.650747 -0.43331 
2 -2.88503 -0.448186 -2.22392 
2 0.317918 2.41188 3.57366 
2 -2.13965 -0.748112 0.621914 
2 0.383962 1.27576 -2.57038 
2 3.59163 -3.02088 2.40923 
2 -0.533881 -2.40423 -2.93923 
2 -0.47576 1.53874 -0.0548647 
2 -3.07199 -3.67917 -1.06231 
2 3.57975 -1.58664 2.4484 
2 -0.224905 -1.92393 -3.66749 
2 -2.02759 -3.15474 1.43092 
2 0.390057 -3.43825 0.93674 
2 1.42586 -2.71142 -0.490364 
2 -2.26312 -0.51205 3.7306 
2 -2.93965 3.55992 2.85738 
2 2.54709 2.28959 -0.804268 
2 -1.80455 1.17771 -0.93843 
2 0.0388122 -2.11462 1.23073 
2 -3.46454 -1.54375 -3.37865 
2 0.93395 0.788837 0.000266351 
2 -3.27611 -1.38977 -0.192989 
2 -0.920365 2.833 3.05376 
2 -1.28569 -1.45497 1.48975 
2 2.49572 -0.661756 1.75737 
2 -0.465636 -0.593151 -1.41409 
2 -0.874541 1.70407 3.72514 
2 2.53576 -3.21538 1.7199 
2 2.33536 3.29887 2.49378 
2 2.76356 -0.0708763 0.776297 
2 1.59266 0.234239 2.29731 
2 -1.68055 -2.52098 2.40036 
2 -0.95764 -1.45179 2.83036 
2 -0.86917 2.56135 -0.593404 
2 -2.87151 -1.95273 1.57379 
2 -3.64738 -2.51721 -3.6741 
