ITEM: TIMESTEP
45
ITEM: NUMBER OF ATOMS
500
ITEM: BOX BOUNDS xy xz yz pp pp pp
-3.7345 3.75691 0.022407
-3.7345 3.7345 0
-3.7345 3.7345 0
ITEM: ATOMS type xu yu zu 
1 0.0242448 -2.18493 -2.24305 
1 -0.931628 -1.77197 -1.79257 
1 -0.526082 -1.53013 -2.85862 
1 -1.29645 -2.44469 -2.51263 
2 -1.7577 -1.87499 -3.02201 
1 -3.30213 -1.21654 -2.5395 
1 -1.16697 -2.31269 -0.825542 
1 -3.29878 -2.27364 -2.87 
1 -0.716414 -2.86696 -1.59849 
1 -1.49973 -1.21372 -2.52736 
1 -2.29879 -2.10269 -2.35899 
1 -2.85576 -1.39639 -0.946571 
1 -2.55612 -1.5438 -3.22408 
1 -3.12966 -0.71135 -3.4804 
1 -2.34466 -3.14425 -2.66523 
1 -0.120235 -2.3611 -0.788123 
1 -3.19382 -2.0034 -1.79431 
1 -2.42779 -1.13025 -1.92529 
1 -2.64787 -2.44191 -0.937854 
1 -1.85601 -2.72945 -1.61039 
1 -0.6039 -0.602186 -2.2993 
1 -0.888228 -1.25256 -0.834778 
1 -2.26031 -0.549928 -2.84967 
2 -1.63899 -1.46092 -0.396912 
1 -1.8754 -1.69188 -1.23919 
1 -2.94708 -3.08912 -1.71701 
2 -0.53255 -2.40423 -2.93923 
1 -1.3541 -0.733583 -1.59896 
1 -3.46406 -3.38474 -2.57988 
2 -0.938106 -0.792162 -3.12686 
1 -2.00558 -0.719849 -0.788053 
1 -0.462475 -3.17545 -2.58244 
1 -0.0202364 -1.3893 -1.43389 
1 -0.84048 -0.213305 -0.707273 
2 -0.462495 -0.593151 -1.41409 
1 -2.94766 -0.398743 -1.29291 
1 -1.40716 -3.20999 -3.2355 
2 -0.550394 -0.875955 -0.0985539 
2 0.151324 -1.05043 -2.51186 
1 0.147694 -0.50338 -0.742994 
2 -1.45019 -0.297572 -2.47806 
2 -2.80864 -0.650747 -0.43331 
1 -1.10557 -2.12907 -3.54107 
1 0.0549046 -1.45787 -0.319611 
2 -3.46235 -1.54375 -3.37865 
2 -3.27377 -1.38977 -0.192989 
1 -1.64174 -1.18887 -3.58583 
1 -1.8408 -3.1612 -0.63271 
1 -3.41878 -3.07988 -0.538239 
1 -0.316226 -3.40502 -0.643567 
2 -2.88175 -0.448186 -2.22392 
1 -1.44467 -3.51716 -2.17816 
1 -1.96652 -2.24095 -0.121046 
1 -3.02331 -3.0927 -3.50268 
1 -1.45154 -0.163795 -3.47929 
2 -3.64616 -2.51721 -3.6741 
1 0.127344 -3.49887 -1.75523 
2 -2.59625 -2.89873 -0.171175 
1 -0.0796307 -0.488497 -3.19397 
2 -3.51079 -2.5847 -1.23412 
1 -2.12915 -2.49011 -3.5188 
1 -2.13119 -0.099088 -1.88946 
2 0.187956 -2.64838 -1.54393 
1 0.290913 -2.46652 -3.21811 
1 0.319249 -3.52078 -3.25129 
1 0.348486 -0.493877 -1.83992 
2 0.405572 -3.0098 -2.51613 
1 0.464429 -1.41477 -3.26894 
1 0.725793 -3.0062 -0.959104 
1 0.799325 -2.22609 -0.14581 
1 0.834566 -1.43477 -2.09298 
1 0.848505 -1.92846 -1.15236 
2 -3.07194 -3.67917 -1.06231 
2 0.869229 -2.11756 -2.671 
1 0.871389 -0.508366 -2.73143 
1 0.976454 -2.64765 -1.96499 
1 1.09969 -0.628503 -1.13732 
1 1.10601 -1.20822 -0.250742 
1 1.18451 -0.0838523 -0.152582 
2 -0.223094 -1.92393 -3.66749 
1 1.23038 -2.87785 -3.0266 
2 1.24301 -1.29341 -2.83669 
1 -0.483795 -2.99715 -3.69722 
2 1.27726 -0.662027 -1.97179 
1 1.3861 -1.90611 -3.42651 
1 -3.70722 -1.12835 -1.54273 
2 1.42688 -2.71142 -0.490364 
1 -3.14367 -2.20888 -0.0204667 
1 0.957214 -3.72312 -2.37633 
1 1.4589 -0.815688 -3.5237 
1 1.47643 -3.60273 -0.451205 
2 1.59687 -2.14138 -1.56331 
1 1.72568 -1.92964 -2.40992 
1 1.76386 -2.94218 -1.25884 
1 1.81855 -1.28567 -1.55306 
1 1.82459 -1.93763 -0.695906 
1 -2.54922 -1.20087 1.25957 
1 -1.83513 -2.29989 1.55963 
1 -0.838617 -2.11152 1.09765 
1 -1.68961 -1.53816 0.741247 
2 0.0404321 -2.11462 1.23073 
2 -2.13667 -0.748112 0.621914 
1 -1.60438 -0.640356 1.33534 
1 -3.59696 -2.32566 0.927066 
2 -1.28341 -1.45497 1.48975 
1 -1.2191 -3.11808 1.10777 
2 -2.86973 -1.95273 1.57379 
2 -1.61761 -2.41953 0.697428 
1 -2.50862 -2.18104 0.777268 
1 -3.11426 -0.694484 0.434836 
1 -0.413297 -3.49004 0.520097 
2 -3.13216 -1.568 0.694181 
1 -0.687991 -1.05054 0.867346 
1 -2.83683 -2.8502 1.47943 
1 -3.24528 -0.465395 1.52608 
1 -0.194854 -2.93679 1.39009 
1 0.01833 -1.32719 1.60934 
1 -0.528736 -0.12875 0.347838 
2 -0.710182 -3.65193 1.5992 
1 0.0670552 -0.324488 1.29989 
1 -1.40514 -0.746567 0.0979171 
1 -2.0928 -3.16636 0.511901 
1 -0.927329 -1.75039 0.0710295 
1 -2.42482 -0.0462388 1.08699 
2 -2.02701 -3.15474 1.43092 
1 -3.15758 -3.19863 0.484718 
1 -1.1113 -2.83727 0.0875217 
1 -0.167126 -2.42603 0.32889 
1 -3.67505 -1.40145 1.39468 
1 0.397579 -0.603646 0.305155 
2 0.390354 -3.43825 0.93674 
1 0.502272 -3.21043 0.0553672 
1 0.427267 -1.58138 0.657029 
1 0.701112 -2.57361 0.88072 
1 0.986299 -1.8572 1.57971 
1 1.03307 -0.872102 1.17265 
1 1.04608 -3.27571 1.51772 
2 -3.42499 -3.66618 1.17371 
2 1.23848 -0.172241 0.728915 
1 -2.42213 -1.32271 0.0209828 
1 -2.28127 -0.103837 0.0398921 
1 1.54724 -2.88693 0.366283 
1 1.52358 -1.82977 0.537036 
2 1.78029 -3.38295 1.03158 
1 1.82827 -0.763327 0.421499 
1 -3.3462 1.08826 -3.48022 
1 -3.52751 0.4521 -1.45119 
1 -3.44052 1.7902 -2.7349 
1 -3.1238 1.618 -0.653594 
1 -3.20174 0.119806 -0.373729 
1 -3.04664 1.37834 -1.77932 
1 -2.91379 0.434716 -2.39453 
1 -2.63443 0.257467 -3.44573 
1 -2.62068 0.767875 -0.941142 
1 -2.46962 1.36406 -2.76448 
1 -2.05944 0.954062 -1.803 
1 -1.91063 1.05914 -3.64096 
1 -1.90535 0.876838 -0.116941 
2 -1.79964 1.17771 -0.93843 
1 -1.82042 0.485292 -2.73444 
1 -1.70325 0.293547 -0.988449 
2 -1.45694 0.0885704 -0.1748 
2 -1.30777 1.01716 -2.26558 
1 -1.19066 1.74185 -0.537205 
1 -1.13565 1.47271 -2.96284 
1 -1.11706 1.32817 -1.48092 
1 -1.11008 0.274249 -1.86306 
1 -3.68006 0.132609 -3.14991 
1 -0.872003 0.740473 -0.196654 
2 -0.88368 0.60606 -1.05728 
1 -0.748139 0.328122 -2.8613 
2 -0.470487 1.53874 -0.0548647 
1 -0.406124 1.09348 -2.20956 
2 -0.359708 1.13749 -3.11765 
1 -0.241205 1.23225 -0.904698 
1 -0.150708 0.312919 -1.42981 
1 0.110901 0.552896 -3.53856 
1 0.129362 0.457919 -0.255186 
1 0.286432 0.365342 -2.50892 
2 0.388972 1.27576 -2.57038 
1 0.58625 1.12424 -1.72514 
1 0.783846 1.42198 -0.666079 
1 0.834142 0.410126 -0.997728 
1 1.04127 0.123638 -3.59545 
1 1.14021 0.991181 -2.90753 
1 1.18489 0.224876 -1.94832 
2 1.63068 0.0603056 -0.940155 
1 1.6803 0.838227 -0.453137 
1 1.71678 1.21486 -1.90629 
1 1.74871 1.82754 -0.911319 
1 1.78584 0.143317 -2.79209 
1 1.85316 1.8359 -2.88063 
1 -3.44668 0.553157 1.19702 
1 -2.97439 1.49423 1.19026 
1 -2.92495 0.997779 0.199798 
2 -3.02511 0.178883 0.498396 
2 -2.6612 0.652411 1.55695 
1 -2.12581 0.957555 0.925142 
1 -1.81674 0.470266 1.82171 
1 -1.71575 1.52837 1.777 
1 -1.445 0.217388 0.685589 
2 -1.28323 0.899573 1.23121 
1 -1.20151 1.42911 0.505988 
1 -0.858773 0.0971887 1.58178 
1 -0.439172 0.795053 0.860956 
1 0.0233992 1.6388 1.32675 
1 0.173102 0.639433 1.80243 
1 0.332805 1.37934 0.299216 
1 0.556472 0.382532 0.691407 
1 0.960509 1.18556 1.22587 
2 0.938473 0.788837 0.000266351 
1 1.09098 0.144763 1.59042 
1 1.42779 1.54746 0.289432 
1 1.6366 0.580969 0.606654 
1 1.85178 -2.51855 1.34738 
1 1.91204 -0.846566 -2.52494 
1 1.91536 0.880339 1.68456 
1 2.27803 -2.42101 -3.15136 
2 2.57204 -3.0328 -1.60366 
1 3.56383 -3.60091 -1.42448 
1 3.12094 -2.7446 -0.983377 
1 3.24666 -2.82342 -3.07258 
1 3.66205 -1.87092 -0.758578 
1 3.16056 -0.273828 -1.28775 
1 3.13778 -3.43542 -0.125067 
1 2.80985 -0.0344568 -2.59883 
2 2.71448 -2.5626 -2.40361 
1 2.09471 -0.235757 -1.65516 
1 3.73918 -0.291523 -2.18948 
1 2.81223 -0.488465 -0.0368412 
1 1.9974 -0.706226 -0.635901 
2 3.32915 -1.89366 -1.59045 
1 2.80754 -1.29098 -1.00139 
1 3.20894 -1.89908 -3.58393 
2 2.71251 -2.07391 -0.622633 
1 3.72938 -0.762566 -0.526717 
1 2.51807 -3.66313 -0.990546 
1 1.95156 -2.99503 -2.28658 
1 3.32238 -0.895815 -3.11583 
1 3.47463 -2.683 -1.97355 
1 2.29828 -2.81998 -0.326612 
1 2.85904 -3.49124 -2.27964 
1 3.2126 -1.82902 -2.5187 
1 2.29972 -3.47079 -3.29739 
1 2.82786 -0.985418 -2.03897 
1 2.45523 -0.339854 -3.5881 
1 2.48811 -2.1519 -1.63402 
1 2.35872 -1.36492 -3.2912 
2 2.04 -0.00755145 -0.0155712 
2 2.76722 -0.0708763 0.776297 
1 1.96122 -1.35347 1.36865 
2 2.53628 -3.21538 1.7199 
2 2.26688 -2.33922 0.432725 
1 2.58944 -3.06868 0.824124 
1 3.22768 -0.203259 1.52545 
2 3.45197 -3.05462 0.620497 
2 3.6229 -0.692252 0.897261 
2 2.4988 -0.661756 1.75737 
1 3.41346 -3.12182 1.51083 
1 2.79088 -0.939666 0.932568 
1 2.48432 -1.55252 0.0617596 
1 2.03851 -0.150501 1.2435 
1 3.18787 -2.39312 0.08416 
1 2.8269 -2.03075 1.06701 
1 3.52704 -1.41126 0.343081 
1 3.19864 1.62488 -3.50942 
2 3.53057 1.53453 -0.36259 
1 2.46157 0.270404 -0.765295 
1 3.49474 1.35806 -1.24102 
2 2.19352 1.06618 -1.13864 
1 2.65451 1.45115 -0.463638 
1 2.73707 0.674746 -1.72548 
1 3.40237 0.654183 -0.48301 
1 2.5139 0.996254 -2.77525 
1 2.6086 1.76389 -1.52894 
1 3.54912 0.897061 -2.4002 
1 1.96691 0.668269 -3.67031 
1 3.0296 0.612776 -3.71243 
1 3.56374 0.0512375 0.427 
1 2.50266 1.55993 0.651124 
1 2.68225 1.68662 1.7162 
1 2.89667 0.736989 1.26572 
1 2.62234 0.594405 0.232446 
1 3.52791 1.19169 0.469154 
1 -3.61454 3.33534 -0.529 
2 -3.44956 2.01832 -3.65411 
2 -3.38285 3.27533 -2.92302 
1 -3.18943 3.03625 -1.48511 
2 -3.09566 2.16732 -1.32312 
1 -2.88015 2.59694 -3.15586 
1 -2.80365 2.6469 -0.583735 
1 -2.68242 3.36489 -2.37696 
1 -2.679 2.32381 -2.11891 
1 -2.59635 3.68025 -0.295109 
2 -2.35636 2.76004 -1.3671 
1 -2.23153 3.63788 -1.35851 
1 -2.21405 1.89971 -1.22592 
1 -2.18162 1.89499 -0.161816 
1 -1.90499 2.19353 -3.1611 
1 -1.78778 3.30524 -2.98087 
1 -1.74094 2.78753 -0.706553 
1 -1.74331 2.92931 -1.97735 
1 -1.6953 1.87686 -2.16321 
2 -1.34068 2.79544 -3.5203 
1 -1.13313 3.5722 -1.1316 
1 -1.00366 2.40294 -1.44194 
1 -1.01469 2.52619 -2.70449 
2 -2.55315 3.61922 -3.28641 
2 -0.862874 2.56135 -0.593404 
2 -0.804226 1.86802 -2.16532 
1 -0.662789 3.42584 -3.12388 
1 -0.633104 3.26497 -2.04852 
1 -0.530901 2.50796 -3.68306 
1 -0.440397 3.12164 -0.0922613 
1 -0.1134 3.06456 -1.13453 
1 -0.0596658 1.98462 -1.67924 
1 -0.108116 1.95812 -2.81542 
1 -0.0192448 2.19307 -0.534727 
2 0.0478489 3.54282 -2.54954 
1 0.366846 2.87415 -2.1002 
1 0.366788 2.9039 -3.16675 
1 0.584847 3.28115 -0.296075 
1 0.886986 2.38235 -1.28644 
1 0.888913 1.95496 -3.38062 
1 0.914438 1.95954 -2.29968 
1 0.955687 3.46357 -1.28645 
1 1.05958 2.37218 -0.223789 
2 1.21554 2.96244 -1.93705 
1 1.33212 3.61517 -3.42644 
1 1.40749 2.81047 -2.77128 
2 1.55391 3.07729 -0.0116037 
2 1.81174 3.64681 -2.66634 
1 1.85926 2.38718 -1.88539 
1 1.84324 2.91143 -0.874083 
1 -3.62357 3.03382 1.55659 
1 -3.25904 3.19504 0.469398 
1 -3.1715 2.09042 0.301053 
1 -2.80167 2.56868 1.18683 
1 -2.52275 3.6118 1.22795 
2 -2.44347 1.98437 1.7084 
1 -2.19679 2.96232 0.391485 
1 -2.01992 1.98669 0.858943 
1 -1.81737 2.64149 1.63603 
2 -1.68431 3.56901 0.887301 
1 -1.55065 3.63335 1.77332 
1 -1.2629 2.48653 0.232379 
1 -0.893844 3.15715 1.03357 
1 -1.38422 3.58273 0.0437803 
1 -0.959415 2.09166 1.27871 
1 -0.264808 2.23984 0.495308 
1 -0.0877422 2.62445 1.72434 
1 0.149736 3.64576 1.82029 
1 0.210228 3.1665 0.80807 
1 0.795501 2.26302 0.831522 
1 1.00489 3.10096 1.55334 
1 1.15535 3.63172 0.596032 
1 1.72503 1.88903 1.28778 
1 1.76056 2.84608 0.858951 
1 1.91243 3.51009 -1.80039 
1 1.90695 3.62519 1.77391 
1 3.54855 3.1574 -2.24199 
1 2.84592 3.01475 -0.367207 
1 3.53787 2.60045 -3.15155 
1 2.53452 2.46341 -3.47976 
1 3.5668 2.34403 -0.829589 
1 2.47945 3.03708 -2.59022 
1 3.66937 2.19788 -1.85413 
1 3.29864 3.59603 -3.18909 
1 2.80663 2.85492 -1.4864 
1 2.87364 2.00486 -2.53266 
2 2.55311 2.28959 -0.804268 
1 2.93416 3.41834 1.80379 
1 3.59276 2.02126 1.19664 
1 2.21922 3.60867 0.264005 
1 2.12868 2.33408 0.000998116 
1 3.27175 3.55182 0.791947 
1 2.77447 2.6247 0.968447 
2 2.43479 3.42385 1.09138 
1 3.23869 2.17889 0.150491 
1 -1.02335 -1.97003 2.13897 
1 -0.573542 -2.24847 3.03234 
1 -0.969708 -3.02523 2.19568 
1 -2.37375 -0.385602 2.19102 
1 -2.53109 -2.20953 2.38419 
1 -1.42348 -0.722795 2.94091 
2 -1.67934 -2.52098 2.40036 
1 -1.9004 -1.34288 2.13323 
1 -1.70906 -1.89023 3.04603 
1 -2.4676 -1.13903 3.14871 
1 -3.04137 -1.3027 2.25082 
1 -2.23715 -3.22643 2.30903 
1 -3.55517 -2.28325 2.00566 
1 -1.44503 -2.89301 3.17577 
2 -1.52361 -3.58965 2.63848 
2 -1.48387 -0.2879 2.1557 
2 -0.955357 -1.45179 2.83036 
1 -0.870839 -0.923579 2.04859 
1 -2.95857 -2.08352 3.42333 
2 -0.735751 -3.36394 3.01241 
1 -3.0975 -3.00968 2.89505 
2 -2.3068 -2.66492 3.10448 
1 -0.0844575 -1.30781 2.69097 
1 -2.2786 -3.53011 3.35382 
1 -3.03485 -0.234931 3.06287 
1 -0.203447 -0.198365 2.39594 
1 0.0287221 -3.15027 2.68276 
1 0.00796679 -2.22323 2.12975 
1 -0.547251 -0.157131 3.39118 
1 -3.27996 -3.57475 2.05033 
1 -0.613379 -1.18417 3.60018 
1 -3.65604 -1.29011 3.24377 
1 0.464335 -2.12259 3.27655 
1 0.488943 -0.680478 3.34761 
1 0.671292 -0.674813 2.14774 
1 0.852531 -3.12768 3.39056 
1 0.96572 -3.68204 2.46781 
2 0.983515 -1.40474 3.45654 
1 0.979661 -1.55052 2.58686 
1 0.934895 -2.61255 2.35855 
2 -2.2599 -0.51205 3.7306 
1 1.58854 -2.38663 3.15568 
1 1.74877 -0.164404 3.09659 
1 1.72132 -0.696161 2.1729 
1 1.83348 -1.30146 3.14023 
1 1.82857 -3.71283 3.10713 
2 -3.56235 0.415321 3.44432 
1 -3.53984 1.57026 2.99818 
1 -3.2383 0.339553 2.20905 
1 -2.81604 0.817231 3.133 
1 -2.608 1.81257 3.57296 
1 -2.70409 1.25307 2.17619 
2 -2.40163 0.465772 2.45666 
1 -2.00858 0.118246 3.142 
1 -1.83162 1.13011 2.76983 
1 -1.09126 0.370365 2.62628 
1 -0.900868 0.808504 3.67158 
1 -0.832702 1.49008 2.88066 
1 -0.756523 1.13377 1.89027 
1 -0.0791307 0.730188 2.89859 
1 -0.0027533 1.57917 3.59452 
1 0.0895301 1.63336 2.38921 
2 -0.869102 1.70407 3.72514 
1 0.811473 0.172631 2.7575 
1 0.98259 1.07436 3.39846 
1 1.03744 1.08655 2.30045 
2 1.59663 0.234239 2.29731 
1 1.81593 1.7994 2.38047 
1 1.92471 1.68085 3.48001 
1 1.93615 -1.89769 2.25576 
1 1.91802 -2.9699 2.32845 
2 3.5819 -1.58664 2.4484 
1 2.77199 -1.71436 2.93697 
2 2.22505 -1.96165 3.5754 
1 2.89649 -1.38559 1.94705 
1 2.63727 -0.691964 2.80842 
1 3.61515 -0.636772 2.40565 
2 3.59235 -3.02088 2.40923 
1 2.82773 -3.41397 2.58971 
2 2.95155 -1.08672 3.55454 
1 3.41808 -0.323212 3.4238 
1 3.50298 -3.29079 3.4236 
1 2.85548 -2.45434 2.12051 
1 3.57238 -2.33722 2.97611 
1 2.59595 -2.72758 3.34917 
1 3.62462 1.2333 1.97677 
1 2.86245 1.52984 2.83713 
1 2.03277 0.841686 2.77394 
2 2.74062 0.939828 2.1678 
2 2.57952 0.164724 3.11522 
1 3.31771 0.51338 2.7334 
1 2.473 0.11085 2.18494 
1 -3.26373 3.38985 3.68222 
1 -3.23863 2.14928 2.07947 
1 -3.07245 2.59519 3.03507 
2 -2.93236 3.55992 2.85738 
1 -2.65199 3.06212 2.16266 
1 -2.22687 2.12277 2.55608 
1 -2.21086 2.92525 3.58075 
1 -1.71943 3.04638 2.65709 
1 -1.48582 2.18221 3.32299 
1 -1.26688 3.53554 3.45897 
1 -1.01032 2.34294 2.3026 
2 -0.913798 2.833 3.05376 
1 -0.714985 3.41879 2.42051 
1 -0.221976 3.48461 3.38183 
1 -0.0815135 2.58704 2.80742 
2 0.324065 2.41188 3.57366 
2 0.581406 2.95446 2.33098 
1 0.733607 3.14479 3.26166 
1 0.898279 2.06633 2.99305 
1 0.88251 2.12692 1.91431 
1 1.46475 2.86174 2.52895 
1 1.58326 2.67629 3.62011 
1 2.39169 2.50985 2.91099 
1 3.65165 3.32563 2.71239 
1 2.21987 2.64008 1.85153 
1 2.78918 3.35478 3.39168 
1 3.38775 2.44646 3.29228 
1 3.22404 2.43712 2.22574 
2 2.34239 3.29887 2.49378 
