ITEM: TIMESTEP
71
ITEM: NUMBER OF ATOMS
500
ITEM: BOX BOUNDS xy xz yz pp pp pp
-3.7345 3.75691 0.022407
-3.7345 3.7345 0
-3.7345 3.7345 0
ITEM: ATOMS type xu yu zu 
1 3.21028 -1.89827 -3.58378 
1 -1.64215 -1.18867 -3.58531 
1 -2.95876 -2.08276 3.4242 
1 2.80843 -1.29031 -1.00042 
1 0.89862 2.06535 2.99299 
1 3.2231 2.43825 2.22484 
1 2.63688 -0.692285 2.80801 
1 -0.632488 3.26335 -2.0484 
1 2.73874 0.67444 -1.72463 
1 -3.12279 1.61818 -0.653663 
1 0.852729 -3.12823 3.39041 
1 0.726349 -3.00544 -0.959753 
1 -1.2628 2.48618 0.232864 
1 -1.02438 -1.97041 2.13927 
1 -2.63495 0.257414 -3.44533 
1 -2.5499 -1.20117 1.25962 
1 -1.44496 -2.89294 3.17621 
1 -0.748037 0.328565 -2.8614 
1 1.03189 -0.871646 1.16989 
1 0.348362 -0.494559 -1.84062 
1 1.33228 3.61439 -3.42676 
1 3.56791 2.34448 -0.829713 
1 -2.01997 1.98685 0.859478 
1 -1.40646 -0.747537 0.0977391 
1 3.67012 2.19818 -1.85412 
1 2.84579 3.01452 -0.368334 
1 1.09298 0.144071 1.59154 
1 1.58577 -2.38535 3.15473 
1 -0.662445 3.42548 -3.12339 
1 3.16154 -0.27334 -1.28791 
1 0.799247 -2.22484 -0.145551 
1 -2.1258 0.958083 0.925176 
1 -0.0208764 -1.38913 -1.43505 
1 1.03904 1.08536 2.30146 
1 1.85376 1.83557 -2.88112 
1 1.82924 -0.763946 0.421631 
1 2.48394 -1.55352 0.0622352 
1 1.72703 -1.92928 -2.41002 
1 -3.23758 0.340092 2.20832 
1 -0.893094 3.15749 1.03321 
1 -1.83567 -2.30043 1.56007 
1 -3.19414 -2.0039 -1.79413 
1 -2.70393 1.25367 2.17683 
1 -3.34553 1.08892 -3.48003 
1 2.68288 1.68735 1.71485 
1 0.848403 -1.92775 -1.15206 
1 0.489178 -0.681086 3.34772 
1 -0.872232 -0.924061 2.04921 
1 3.73953 -0.291001 -2.18989 
1 3.22703 -0.203418 1.52453 
1 -0.859649 0.0959108 1.58153 
1 0.50293 -3.20893 0.05466 
1 -1.19068 1.74148 -0.536923 
1 -0.405738 1.0935 -2.20967 
1 -2.25963 -0.549743 -2.84951 
1 3.41663 -0.321598 3.42354 
1 -0.93152 -1.77328 -1.79223 
1 3.19946 1.62588 -3.50942 
1 0.0287902 -3.15045 2.68306 
1 -1.29662 -2.44503 -2.5124 
1 -3.2642 3.3903 3.68195 
1 -1.10979 0.273831 -1.86292 
1 -3.30253 -1.21659 -2.53929 
1 1.91257 3.51077 -1.80068 
1 -1.01044 2.34346 2.30233 
1 1.84332 2.9117 -0.875014 
1 0.882281 2.12614 1.91453 
1 -2.21303 1.89951 -1.22561 
1 0.983273 1.07363 3.39859 
1 1.91626 0.880894 1.68523 
1 2.87428 2.00589 -2.53283 
1 -0.167551 -2.42616 0.328563 
1 -0.969797 -3.02543 2.19587 
1 3.6629 -1.87149 -0.759165 
1 1.72479 1.88876 1.28772 
1 1.68101 0.838909 -0.452504 
1 3.27133 3.55137 0.7926 
1 -2.65298 3.06215 2.16362 
1 2.47349 0.111292 2.18501 
1 1.18306 0.223472 -1.94596 
1 -2.18128 1.89519 -0.161265 
1 0.128755 0.456012 -0.252867 
1 -0.20387 -0.199322 2.39495 
1 -1.3844 3.58245 0.0447128 
1 -1.81835 2.64188 1.63627 
1 3.29891 3.59739 -3.18909 
1 -1.91058 1.05712 -3.64034 
1 2.21875 2.64025 1.85065 
1 -0.547373 -0.157943 3.39034 
1 -0.112003 3.06346 -1.13479 
1 -1.00379 2.40249 -1.44115 
1 -1.21899 -3.11901 1.10782 
1 3.50247 -3.28972 3.42322 
1 0.834883 -1.43556 -2.09321 
1 3.32208 -0.894934 -3.11587 
1 3.56387 0.0515471 0.425812 
1 -3.62296 3.03568 1.55869 
1 0.210791 3.16677 0.807845 
1 -0.081358 2.5867 2.80684 
1 -0.107737 1.95804 -2.81562 
1 -2.21079 2.92579 3.58112 
1 -3.61447 3.33563 -0.529579 
1 2.21924 3.60825 0.263734 
1 -2.88024 2.59713 -3.15646 
1 -2.50893 -2.18076 0.777605 
1 -1.74293 2.92895 -1.97787 
1 2.82794 -0.985254 -2.03791 
1 2.9328 3.41801 1.803 
1 -1.16734 -2.31325 -0.82501 
1 1.82466 -1.93703 -0.69626 
1 2.29835 -2.81951 -0.326378 
1 1.58239 2.6751 3.62016 
1 3.21233 -1.82828 -2.51892 
1 2.51891 -3.66272 -0.991368 
1 2.85492 -2.45497 2.12207 
1 2.82581 -2.03186 1.06771 
1 0.733441 3.14466 3.26086 
1 -0.530713 2.50768 -3.68337 
1 -0.756089 1.13217 1.89027 
1 -3.02338 -3.09332 -3.50158 
1 -3.70682 -1.12804 -1.54277 
1 -1.83179 1.13012 2.77064 
1 -3.6759 -1.40095 1.39437 
1 2.29929 -3.47041 -3.29815 
1 -0.194529 -2.93758 1.39007 
1 0.700825 -2.57247 0.880715 
1 0.332476 1.37836 0.299656 
1 -1.1352 1.47231 -2.96328 
1 2.35903 -1.36466 -3.29277 
1 -0.462266 -3.17568 -2.58221 
1 -1.49937 -1.21464 -2.52701 
1 -2.83667 -2.84975 1.4795 
1 -2.4278 -1.13043 -1.92588 
1 2.1286 2.33403 -0.000357926 
1 0.0168154 -1.32719 1.60982 
1 0.558849 0.382009 0.692353 
1 3.49577 1.35892 -1.24107 
1 1.9129 -0.846259 -2.52571 
1 -2.91375 0.435076 -2.39488 
1 -2.97484 1.49414 1.19075 
1 -3.24591 -0.46543 1.52577 
1 3.56498 -3.60024 -1.42531 
1 0.794563 2.26214 0.832045 
1 1.38658 -1.90644 -3.42603 
1 -2.64821 -2.44241 -0.937594 
1 -2.80343 2.64693 -0.583939 
1 2.58853 -3.06924 0.824391 
1 -1.69454 1.87645 -2.16315 
1 1.231 -2.87851 -3.02705 
1 2.50213 1.56015 0.65014 
1 1.90566 3.62564 1.7738 
1 0.42403 -1.58045 0.656867 
1 -0.530734 -0.130201 0.348006 
1 -3.17141 2.09063 0.300968 
1 -2.68202 3.36446 -2.37764 
1 0.957209 -3.72302 -2.37618 
1 -0.26461 2.24009 0.495934 
1 -3.55616 -2.28286 2.00557 
1 1.93554 -1.89809 2.25549 
1 -1.74115 2.78785 -0.705812 
1 3.31818 0.514153 2.7321 
1 3.59351 2.02358 1.19639 
1 -2.67825 2.32361 -2.11917 
1 1.74956 -0.162657 3.09726 
1 -3.20155 0.120139 -0.374702 
1 -0.0593428 1.98457 -1.6789 
1 3.23862 2.17895 0.149981 
1 3.65289 3.32531 2.71177 
1 1.04404 -3.27648 1.51689 
1 0.367905 2.87346 -2.101 
1 1.40737 2.81026 -2.77111 
1 -0.0200851 2.19231 -0.53425 
1 3.53777 2.6015 -3.15279 
1 -2.62019 0.767488 -0.941596 
1 0.960826 1.18548 1.22692 
1 -3.27951 -3.57295 2.05124 
1 -3.23897 2.14993 2.08016 
1 1.91795 -2.97037 2.32986 
1 2.85956 -3.49066 -2.2797 
1 3.4023 0.654587 -0.483903 
1 3.2474 -2.8225 -3.07214 
1 -2.27807 -3.52954 3.35448 
1 -2.22649 2.1231 2.55601 
1 2.77338 2.62455 0.967486 
1 1.76455 -2.94104 -1.25895 
1 -1.44635 0.216478 0.686087 
1 3.62519 1.23404 1.97565 
1 -1.11177 -2.83741 0.0879561 
1 -3.25918 3.19551 0.469319 
1 -2.92514 0.997701 0.199865 
1 0.00679736 -2.22349 2.12972 
1 1.10073 -0.626369 -1.13796 
1 2.89687 0.737283 1.26506 
1 -2.37458 -0.385416 2.19113 
1 1.42706 1.54832 0.289396 
1 -1.90155 -1.34323 2.13353 
1 1.92647 1.68071 3.47986 
1 3.52686 -1.41127 0.342144 
1 0.784144 1.42351 -0.665405 
1 -2.4685 -1.13865 3.14908 
1 3.38763 2.44629 3.2912 
1 -0.839486 -2.11244 1.09783 
1 -1.85608 -2.7301 -1.61022 
1 -3.0362 -0.234503 3.06302 
1 0.46479 -1.41524 -3.26887 
1 3.1212 -2.7448 -0.982878 
1 0.833831 0.411713 -0.995054 
1 -2.42611 -0.0454257 1.08684 
1 -3.18838 3.03667 -1.48567 
1 0.110603 0.55171 -3.53972 
1 2.03599 0.842235 2.77582 
1 1.45868 -0.81643 -3.52415 
1 -0.614115 -1.18453 3.60031 
1 0.28695 0.365585 -2.50986 
1 -0.888646 -1.25338 -0.834965 
1 0.066546 -0.324727 1.29846 
1 3.13764 -3.4358 -0.124538 
1 -1.55019 3.63305 1.77377 
1 2.45467 -0.338683 -3.58689 
1 3.47397 -2.68222 -1.97334 
1 1.00512 3.10004 1.553 
1 0.58451 3.28281 -0.296267 
1 -3.59764 -2.32567 0.927332 
1 0.966203 -3.68204 2.46748 
1 -1.44375 -3.51776 -2.17788 
1 1.63833 0.582742 0.607372 
1 -3.5392 1.57033 2.99784 
1 3.57271 -2.33579 2.9764 
1 -1.20145 1.42841 0.506617 
1 -0.604013 -0.602605 -2.2997 
1 2.39124 2.51064 2.91079 
1 -1.48588 2.18216 3.32314 
1 1.81684 1.79902 2.38023 
1 0.463601 -2.12319 3.27652 
1 2.81304 -0.490158 -0.0365711 
1 -1.35385 -0.73384 -1.59923 
1 2.82827 -3.41495 2.58953 
1 -1.87548 -1.69258 -1.24003 
1 2.77088 -1.71419 2.93805 
1 -3.68201 0.134494 -3.15008 
1 2.09497 -0.235035 -1.65525 
1 1.18603 -0.083509 -0.151265 
1 2.79054 3.35468 3.39175 
1 -1.1059 -2.12917 -3.54068 
1 0.0244536 -2.18487 -2.24297 
1 -3.65592 -1.28842 3.24403 
1 -3.4189 -3.07996 -0.537778 
1 -2.00576 -0.720529 -0.788692 
1 -2.85545 -1.39669 -0.94682 
1 -2.52286 3.6116 1.22898 
1 0.0226197 1.63755 1.32684 
1 -0.240466 1.23116 -0.903623 
1 0.291135 -2.46671 -3.21781 
1 0.985476 -1.85577 1.57919 
1 -0.438601 0.793185 0.861028 
1 -1.90562 0.876538 -0.116805 
1 -3.14383 -2.20923 -0.0199626 
1 -3.15783 -3.19864 0.485077 
1 1.82869 -3.71501 3.10698 
1 1.47696 -3.60194 -0.45173 
1 0.811073 0.171121 2.757 
1 -1.82027 0.484648 -2.73361 
1 -1.7097 -1.89016 3.04651 
1 -1.84062 -3.16183 -0.632483 
1 0.319637 -3.52089 -3.25099 
1 -2.19685 2.96239 0.392392 
1 0.586612 1.12415 -1.72445 
1 0.934364 -2.61283 2.35677 
1 1.85025 -2.51928 1.34813 
1 -2.28142 -0.104013 0.0394652 
1 -2.9479 -0.39918 -1.29324 
1 1.72081 -0.693091 2.17281 
1 2.80926 -0.0346098 -2.59751 
1 -3.07212 2.59452 3.03636 
1 -1.90498 2.1937 -3.1608 
1 2.86369 1.53118 2.83553 
1 0.915459 1.95865 -2.29945 
1 -0.0799006 0.729136 2.89776 
1 -0.574027 -2.24863 3.03255 
1 -0.959996 2.09186 1.27864 
1 -0.0851008 -1.30777 2.69132 
1 -0.120494 -2.36064 -0.789069 
1 0.366712 2.90375 -3.16749 
1 3.52781 1.19224 0.469219 
1 0.888852 1.95474 -3.38061 
1 -0.00215173 1.57864 3.59379 
1 -0.14997 0.313041 -1.4304 
1 -0.839977 -0.214287 -0.70674 
1 -2.12956 -2.4903 -3.51799 
1 -0.71502 3.41864 2.42128 
1 -2.29929 -2.10334 -2.35908 
1 -0.0878588 2.62383 1.72347 
1 -1.01465 2.52576 -2.70493 
1 -0.87238 0.740013 -0.196646 
1 1.85974 2.38718 -1.88586 
1 -1.96717 -2.24159 -0.120825 
1 1.54684 -2.88637 0.366019 
1 -3.04208 -1.30224 2.25076 
1 0.396903 -0.602784 0.303088 
1 -2.00932 0.117791 3.14206 
1 -1.78706 3.3058 -2.98099 
1 2.0404 -0.150158 1.243 
1 3.54874 3.15727 -2.24233 
1 1.78523 0.144654 -2.7892 
1 -2.23719 -3.2264 2.3095 
1 -2.23074 3.63739 -1.35829 
1 -0.689651 -1.05116 0.868056 
1 0.871333 -0.508649 -2.73178 
1 2.59445 -2.72666 3.34713 
1 -0.440458 3.12143 -0.0927638 
1 -3.52704 0.45248 -1.45167 
1 -0.221935 3.48423 3.38242 
1 -3.44667 0.552922 1.19619 
1 -1.13199 3.57101 -1.13082 
1 -0.412702 -3.4899 0.51899 
1 1.96565 0.669064 -3.66806 
1 1.832 -1.30022 3.13816 
1 -1.71534 1.52812 1.77744 
1 0.887077 2.3828 -1.28647 
1 1.5224 -1.82894 0.538173 
1 -3.04575 1.37857 -1.7794 
1 -3.43992 1.79143 -2.73532 
1 -3.09725 -3.00892 2.89638 
1 -1.60605 -0.640624 1.336 
1 -2.05839 0.954012 -1.80269 
1 0.978254 -1.55138 2.58672 
1 2.6232 0.594565 0.232037 
1 2.80658 2.85425 -1.48727 
1 1.9604 -1.35216 1.36954 
1 -2.13151 -0.0990769 -1.88881 
1 -2.60693 1.81173 3.57307 
1 -2.59608 3.67991 -0.295022 
1 -1.71994 3.04691 2.65743 
1 -3.46422 -3.38476 -2.57882 
1 -2.469 1.36422 -2.76416 
1 1.46392 2.86069 2.52864 
1 0.126953 -3.50019 -1.75498 
1 1.13985 0.99182 -2.90775 
1 0.174418 0.638325 1.80268 
1 1.05927 2.37354 -0.223627 
1 2.46187 0.269715 -0.764807 
1 1.04169 0.123371 -3.59469 
1 2.53433 2.46407 -3.48001 
1 -2.5562 -1.54306 -3.22372 
1 -0.483301 -2.997 -3.69706 
1 -2.344 -3.14502 -2.66502 
1 -2.81626 0.816836 3.13308 
1 -1.70265 0.29271 -0.988071 
1 3.02816 0.61503 -3.71453 
1 0.149634 3.64471 1.82124 
1 3.73027 -0.762295 -0.526926 
1 1.71735 1.21277 -1.9067 
1 -2.4219 -1.32272 0.0206919 
1 -2.94607 -3.08928 -1.71715 
1 2.79097 -0.940876 0.933307 
1 0.0549749 -1.45745 -0.321001 
1 0.0899999 1.63231 2.38932 
1 1.75949 2.84503 0.857341 
1 -0.92755 -1.75041 0.0711131 
1 -0.900513 0.808439 3.67091 
1 -0.080013 -0.488977 -3.19428 
1 -0.314875 -3.40518 -0.644414 
1 1.95197 -2.9943 -2.28677 
1 0.148423 -0.503372 -0.744733 
1 1.74872 1.82756 -0.912027 
1 2.60859 1.76277 -1.52977 
1 -1.11623 1.32762 -1.48061 
1 1.10626 -1.20737 -0.251437 
1 -1.81736 0.470093 1.82134 
1 1.15546 3.63212 0.595299 
1 -1.42449 -0.72342 2.94129 
1 2.4885 -2.15104 -1.63313 
1 3.55008 0.899381 -2.39926 
1 2.89608 -1.38675 1.94767 
1 -2.09319 -3.16666 0.512635 
1 2.6551 1.45155 -0.464212 
1 0.976662 -2.64697 -1.96518 
1 3.18815 -2.39338 0.0840919 
1 -0.716884 -2.86785 -1.59814 
1 -0.832815 1.49016 2.88003 
1 3.61438 -0.63563 2.40541 
1 -1.69014 -1.53859 0.741564 
1 2.47958 3.03817 -2.5908 
1 3.41258 -3.12192 1.51147 
1 -0.525729 -1.53042 -2.85888 
1 -1.09204 0.36969 2.62609 
1 -3.29858 -2.27306 -2.87027 
1 -1.45131 -0.16355 -3.47954 
1 -3.13021 -0.710015 -3.47947 
1 -1.26663 3.53527 3.45921 
1 0.956095 3.46387 -1.28618 
1 -3.11434 -0.694552 0.434606 
1 -1.40641 -3.20992 -3.23536 
1 2.27884 -2.4207 -3.15227 
1 0.671004 -0.675816 2.14595 
1 2.51541 0.996493 -2.77469 
1 -2.5319 -2.20946 2.3846 
1 1.81912 -1.2849 -1.55326 
1 -2.80254 2.56866 1.1871 
1 1.99769 -0.705773 -0.635668 
2 1.63092 0.0615724 -0.939773 
2 0.405564 -3.00983 -2.51561 
2 -0.938554 -0.792522 -3.12665 
2 3.62239 -0.692063 0.896114 
2 2.43319 3.42332 1.09112 
2 -3.38286 3.27577 -2.92323 
2 1.81149 3.64772 -2.66673 
2 -0.358658 1.13726 -3.11788 
2 -1.63927 -1.46216 -0.397628 
2 1.77919 -3.38251 1.03156 
2 -1.34076 2.79505 -3.52038 
2 -0.803791 1.86821 -2.165 
2 0.187118 -2.64984 -1.54469 
2 2.58154 0.163272 3.11475 
2 -3.13293 -1.56793 0.6943 
2 -3.56342 0.416622 3.44424 
2 -2.55319 3.61794 -3.28687 
2 1.27734 -0.663203 -1.97259 
2 1.24266 -0.170927 0.730449 
2 -1.4566 0.0879977 -0.174192 
2 -1.68461 3.56833 0.88805 
2 2.19393 1.0657 -1.13847 
2 2.0414 -0.00782632 -0.014285 
2 -0.709957 -3.65241 1.59984 
2 2.71404 -2.56117 -2.4036 
2 1.24374 -1.29337 -2.83646 
2 2.95213 -1.08572 3.55432 
2 2.5728 -3.0318 -1.60382 
2 -0.551873 -0.877722 -0.0976807 
2 1.55416 3.07792 -0.0127798 
2 0.580984 2.95462 2.33048 
2 -3.44883 2.01899 -3.65494 
2 1.59676 -2.14031 -1.5637 
2 -1.30709 1.01699 -2.26575 
2 -3.09477 2.16759 -1.32325 
2 -0.883169 0.605094 -1.05707 
2 -3.0255 0.178715 0.497185 
2 -2.40138 0.466172 2.45657 
2 2.71251 -2.07368 -0.622937 
2 3.32919 -1.89247 -1.59076 
2 -1.75818 -1.87511 -3.02173 
2 3.45136 -3.05489 0.621196 
2 -1.48502 -0.288021 2.1562 
2 2.26579 -2.33937 0.433432 
2 2.22175 -1.96125 3.57464 
2 0.870127 -2.11763 -2.67171 
2 -1.2831 0.898485 1.23135 
2 -1.4505 -0.298493 -2.47687 
2 -0.735502 -3.36397 3.0128 
2 2.74077 0.940483 2.16681 
2 0.151457 -1.05102 -2.51212 
2 1.21616 2.96305 -1.9368 
2 -2.66165 0.653913 1.55667 
2 -2.35549 2.75969 -1.36723 
2 -2.59634 -2.8993 -0.17095 
2 -2.44367 1.98424 1.70853 
2 -1.61835 -2.4201 0.697954 
2 -3.42506 -3.66556 1.17431 
2 -1.52326 -3.58955 2.63892 
2 0.0480086 3.54241 -2.5496 
2 -3.5108 -2.58581 -1.23449 
2 -2.30675 -2.6643 3.1051 
2 3.53146 1.53457 -0.362752 
2 0.983486 -1.40611 3.45636 
2 -2.80866 -0.650944 -0.433519 
2 -2.88148 -0.447871 -2.22441 
2 0.324215 2.41165 3.57306 
2 -2.13784 -0.748101 0.622187 
2 0.389109 1.27594 -2.56933 
2 3.59215 -3.01987 2.4105 
2 -0.53254 -2.40446 -2.93886 
2 -0.470864 1.53835 -0.0539981 
2 -3.07135 -3.679 -1.06227 
2 3.58189 -1.58566 2.44921 
2 -0.223549 -1.92442 -3.66723 
2 -2.02688 -3.15517 1.43134 
2 0.390267 -3.43764 0.934761 
2 1.42684 -2.71047 -0.49064 
2 -2.26003 -0.512003 3.73089 
2 -2.93168 3.56086 2.85809 
2 2.55229 2.28949 -0.805539 
2 -1.79883 1.17693 -0.938263 
2 0.039251 -2.11473 1.23098 
2 -3.46173 -1.54277 -3.37882 
2 0.938418 0.78849 -0.000330571 
2 -3.2733 -1.39012 -0.193208 
2 -0.914053 2.83242 3.05369 
2 -1.28417 -1.45522 1.49007 
2 2.49914 -0.661933 1.75849 
2 -0.46266 -0.592302 -1.41482 
2 -0.868408 1.70391 3.7248 
2 2.53546 -3.21569 1.72034 
2 2.34227 3.29878 2.49266 
2 2.76792 -0.0718992 0.774795 
2 1.59709 0.237781 2.29894 
2 -1.67985 -2.52108 2.40085 
2 -0.955897 -1.45229 2.8306 
2 -0.863503 2.5609 -0.592658 
2 -2.87069 -1.95244 1.5741 
2 -3.64562 -2.51734 -3.67423 
