ITEM: TIMESTEP
72
ITEM: NUMBER OF ATOMS
500
ITEM: BOX BOUNDS xy xz yz pp pp pp
-3.7345 3.76438 0.029876
-3.7345 3.7345 0
-3.7345 3.7345 0
ITEM: ATOMS type xu yu zu 
1 0.0260033 -2.18487 -2.24297 
1 -0.929559 -1.77328 -1.79223 
1 -0.523525 -1.53042 -2.85888 
1 -1.29533 -2.44503 -2.5124 
2 -1.75632 -1.87511 -3.02173 
1 -3.30001 -1.21659 -2.53929 
1 -1.16592 -2.31325 -0.82501 
1 -3.29712 -2.27306 -2.87027 
1 -0.716017 -2.86785 -1.59814 
1 -1.49685 -1.21464 -2.52701 
1 -2.29766 -2.10334 -2.35908 
1 -2.85312 -1.39669 -0.94682 
1 -2.55401 -1.54306 -3.22372 
1 -3.12718 -0.710015 -3.47947 
1 -2.34341 -3.14502 -2.66502 
1 -0.11912 -2.36064 -0.789069 
1 -3.19241 -2.0039 -1.79413 
1 -2.42519 -1.13043 -1.92588 
1 -2.64692 -2.44241 -0.937594 
1 -1.85507 -2.7301 -1.61022 
1 -0.600881 -0.602605 -2.2997 
1 -0.886165 -1.25338 -0.834965 
1 -2.25644 -0.549743 -2.84951 
2 -1.63699 -1.46216 -0.397628 
1 -1.87344 -1.69258 -1.24003 
1 -2.94542 -3.08928 -1.71715 
2 -0.53121 -2.40446 -2.93886 
1 -1.35085 -0.73384 -1.59923 
1 -3.46387 -3.38476 -2.57882 
2 -0.935612 -0.792522 -3.12665 
1 -2.00275 -0.720529 -0.788692 
1 -0.461707 -3.17568 -2.58221 
1 -0.018531 -1.38913 -1.43505 
1 -0.836457 -0.214287 -0.70674 
2 -0.459518 -0.592302 -1.41482 
1 -2.94456 -0.39918 -1.29324 
1 -1.40588 -3.20992 -3.23536 
2 -0.549016 -0.877722 -0.0976807 
2 0.154141 -1.05102 -2.51212 
1 0.151654 -0.503372 -0.744733 
2 -1.44706 -0.298493 -2.47687 
2 -2.80558 -0.650944 -0.433519 
1 -1.10429 -2.12917 -3.54068 
1 0.057252 -1.45745 -0.321001 
2 -3.45954 -1.54277 -3.37882 
2 -3.27096 -1.39012 -0.193208 
1 -1.6396 -1.18867 -3.58531 
1 -1.84005 -3.16183 -0.632483 
1 -3.41824 -3.07996 -0.537778 
1 -0.314546 -3.40518 -0.644414 
2 -2.87819 -0.447871 -2.22441 
1 -1.44354 -3.51776 -2.17788 
1 -1.96568 -2.24159 -0.120825 
1 -3.02274 -3.09332 -3.50158 
1 -1.44774 -0.16355 -3.47954 
2 -3.6444 -2.51734 -3.67423 
1 0.127187 -3.50019 -1.75498 
2 -2.5955 -2.8993 -0.17095 
1 -0.0767675 -0.488977 -3.19428 
2 -3.50965 -2.58581 -1.23449 
1 -2.12832 -2.4903 -3.51799 
1 -2.12787 -0.0990769 -1.88881 
2 0.188203 -2.64984 -1.54469 
1 0.292403 -2.46671 -3.21781 
1 0.319851 -3.52089 -3.25099 
1 0.351602 -0.494559 -1.84062 
2 0.406288 -3.00983 -2.51561 
1 0.46711 -1.41524 -3.26887 
1 0.727078 -3.00544 -0.959753 
1 0.800756 -2.22484 -0.145551 
1 0.837181 -1.43556 -2.09321 
1 0.85021 -1.92775 -1.15206 
2 -3.0713 -3.679 -1.06227 
2 0.871744 -2.11763 -2.67171 
1 0.874559 -0.508649 -2.73178 
1 0.977749 -2.64697 -1.96518 
1 1.10384 -0.626369 -1.13796 
1 1.10878 -1.20737 -0.251437 
1 1.18968 -0.083509 -0.151265 
2 -0.221739 -1.92442 -3.66723 
1 1.23186 -2.87851 -3.02705 
2 1.24618 -1.29337 -2.83646 
1 -0.482563 -2.997 -3.69706 
2 1.28041 -0.663203 -1.97259 
1 1.38841 -1.90644 -3.42603 
1 -3.70421 -1.12804 -1.54277 
2 1.42786 -2.71047 -0.49064 
1 -3.14231 -2.20923 -0.0199626 
1 0.957221 -3.72302 -2.37618 
1 1.4616 -0.81643 -3.52415 
1 1.4771 -3.60194 -0.45173 
2 1.59835 -2.14031 -1.5637 
1 1.72883 -1.92928 -2.41002 
1 1.76534 -2.94104 -1.25895 
1 1.82157 -1.2849 -1.55326 
1 1.82646 -1.93703 -0.69626 
1 -2.54736 -1.20117 1.25962 
1 -1.83423 -2.30043 1.56007 
1 -0.837864 -2.11244 1.09783 
1 -1.68794 -1.53859 0.741564 
2 0.0408707 -2.11473 1.23098 
2 -2.13485 -0.748101 0.622187 
1 -1.60295 -0.640624 1.336 
1 -3.59623 -2.32567 0.927332 
2 -1.28189 -1.45522 1.49007 
1 -1.21838 -3.11901 1.10782 
2 -2.8689 -1.95244 1.5741 
2 -1.61703 -2.4201 0.697954 
1 -2.50737 -2.18076 0.777605 
1 -3.1113 -0.694552 0.434606 
1 -0.412457 -3.4899 0.51899 
2 -3.13076 -1.56793 0.6943 
1 -0.686968 -1.05116 0.868056 
1 -2.83579 -2.84975 1.4795 
1 -3.24265 -0.46543 1.52577 
1 -0.193732 -2.93758 1.39007 
1 0.0192227 -1.32719 1.60982 
1 -0.527129 -0.130201 0.348006 
2 -0.709875 -3.65241 1.59984 
1 0.0699558 -0.324727 1.29846 
1 -1.40347 -0.747537 0.0977391 
1 -2.09262 -3.16666 0.512635 
1 -0.925566 -1.75041 0.0711131 
1 -2.42242 -0.0454257 1.08684 
2 -2.02631 -3.15517 1.43134 
1 -3.15729 -3.19864 0.485077 
1 -1.11087 -2.83741 0.0879561 
1 -0.166243 -2.42616 0.328563 
1 -3.67357 -1.40095 1.39437 
1 0.400034 -0.602784 0.303088 
2 0.390564 -3.43764 0.934761 
1 0.503455 -3.20893 0.05466 
1 0.426184 -1.58045 0.656867 
1 0.701987 -2.57247 0.880715 
1 0.987355 -1.85577 1.57919 
1 1.03475 -0.871646 1.16989 
1 1.0445 -3.27648 1.51689 
2 -3.42499 -3.66556 1.17431 
2 1.24622 -0.170927 0.730449 
1 -2.41949 -1.32272 0.0206919 
1 -2.27779 -0.104013 0.0394652 
1 1.54769 -2.88637 0.366019 
1 1.5243 -1.82894 0.538173 
2 1.77954 -3.38251 1.03156 
1 1.83221 -0.763946 0.421631 
1 -3.34071 1.08892 -3.48003 
1 -3.52285 0.45248 -1.45167 
1 -3.43439 1.79143 -2.73532 
1 -3.11744 1.61818 -0.653663 
1 -3.1977 0.120139 -0.374702 
1 -3.04064 1.37857 -1.7794 
1 -2.90958 0.435076 -2.39488 
1 -2.63096 0.257414 -3.44533 
1 -2.61568 0.767488 -0.941596 
1 -2.4639 1.36422 -2.76416 
1 -2.0537 0.954012 -1.80269 
1 -1.90578 1.05712 -3.64034 
1 -1.90101 0.876538 -0.116805 
2 -1.79392 1.17693 -0.938263 
1 -1.81605 0.484648 -2.73361 
1 -1.69862 0.29271 -0.988071 
2 -1.45278 0.0879977 -0.174192 
2 -1.30233 1.01699 -2.26575 
1 -1.1852 1.74148 -0.536923 
1 -1.13 1.47231 -2.96328 
1 -1.11117 1.32762 -1.48061 
1 -1.10578 0.273831 -1.86292 
1 -3.67815 0.134494 -3.15008 
1 -0.867905 0.740013 -0.196646 
2 -0.87883 0.605094 -1.05707 
1 -0.743974 0.328565 -2.8614 
2 -0.465591 1.53835 -0.0539981 
1 -0.40091 1.0935 -2.20967 
2 -0.353786 1.13726 -3.11788 
1 -0.2355 1.23116 -0.903623 
1 -0.145922 0.313041 -1.4304 
1 0.11489 0.55171 -3.53972 
1 0.132946 0.456012 -0.252867 
1 0.291051 0.365585 -2.50986 
2 0.394119 1.27594 -2.56933 
1 0.591471 1.12415 -1.72445 
1 0.789302 1.42351 -0.665405 
1 0.837978 0.411713 -0.995054 
1 1.04555 0.123371 -3.59469 
1 1.14458 0.99182 -2.90775 
1 1.18701 0.223472 -1.94596 
2 1.63472 0.0615724 -0.939773 
1 1.68559 0.838909 -0.452504 
1 1.7223 1.21277 -1.9067 
1 1.75428 1.82756 -0.912027 
1 1.78911 0.144654 -2.7892 
1 1.85933 1.83557 -2.88112 
1 -3.44238 0.552922 1.19619 
1 -2.96961 1.49414 1.19075 
1 -2.9204 0.997701 0.199865 
2 -3.02159 0.178715 0.497185 
2 -2.65727 0.653913 1.55667 
1 -2.1211 0.958083 0.925176 
1 -1.81316 0.470093 1.82134 
1 -1.71008 1.52812 1.77744 
1 -1.4424 0.216478 0.686087 
2 -1.27847 0.898485 1.23135 
1 -1.19629 1.42841 0.506617 
1 -0.855819 0.0959108 1.58153 
1 -0.434073 0.793185 0.861028 
1 0.0279918 1.63755 1.32684 
1 0.178791 0.638325 1.80268 
1 0.337589 1.37836 0.299656 
1 0.562965 0.382009 0.692353 
1 0.965746 1.18548 1.22692 
2 0.942941 0.78849 -0.000330571 
1 1.09686 0.144071 1.59154 
1 1.43234 1.54832 0.289396 
1 1.64265 0.582742 0.607372 
1 1.85147 -2.51928 1.34813 
1 1.91579 -0.846259 -2.52571 
1 1.92088 0.880894 1.68523 
1 1.95272 -2.9943 -2.28677 
1 1.96278 -1.35216 1.36954 
1 1.97006 0.669064 -3.66806 
1 2.28015 -2.4207 -3.15227 
2 2.57351 -3.0318 -1.60382 
1 3.56512 -3.60024 -1.42531 
1 3.12219 -2.7448 -0.982878 
1 3.24831 -2.8225 -3.07214 
1 3.66476 -1.87149 -0.759165 
1 3.165 -0.27334 -1.28791 
1 3.13794 -3.4358 -0.124538 
1 2.81296 -0.0346098 -2.59751 
2 2.71521 -2.56117 -2.4036 
1 2.09847 -0.235035 -1.65525 
1 3.74298 -0.291001 -2.18989 
1 2.81629 -0.490158 -0.0365711 
1 2.00072 -0.705773 -0.635668 
2 3.33104 -1.89247 -1.59076 
1 2.81088 -1.29031 -1.00042 
1 3.21211 -1.89827 -3.58378 
2 2.71418 -2.07368 -0.622937 
1 3.73324 -0.762295 -0.526926 
1 2.51898 -3.66272 -0.991368 
1 3.32492 -0.894934 -3.11587 
1 3.47502 -2.68222 -1.97334 
1 2.29926 -2.81951 -0.326378 
1 2.8598 -3.49066 -2.2797 
1 3.21424 -1.82828 -2.51892 
1 2.29956 -3.47041 -3.29815 
1 2.83069 -0.985254 -2.03791 
1 2.45807 -0.338683 -3.58689 
1 2.49008 -2.15104 -1.63313 
1 2.3614 -1.36466 -3.29277 
2 2.04513 -0.00782632 -0.014285 
2 2.77158 -0.0718992 0.774795 
2 2.53598 -3.21569 1.72034 
2 2.26719 -2.33937 0.433432 
1 2.5892 -3.06924 0.824391 
1 3.23056 -0.203418 1.52453 
2 3.45204 -3.05489 0.621196 
2 3.62543 -0.692063 0.896114 
2 2.50221 -0.661933 1.75849 
1 3.41319 -3.12192 1.51147 
1 2.79376 -0.940876 0.933307 
1 2.48612 -1.55352 0.0622352 
1 2.04398 -0.150158 1.243 
1 3.18949 -2.39338 0.0840919 
1 2.82751 -2.03186 1.06771 
1 3.52918 -1.41127 0.342144 
1 3.20482 1.62588 -3.50942 
2 3.53673 1.53457 -0.362752 
1 2.46587 0.269715 -0.764807 
1 3.50086 1.35892 -1.24107 
2 2.19873 1.0657 -1.13847 
1 2.66028 1.45155 -0.464212 
1 2.74315 0.67444 -1.72463 
1 3.40669 0.654587 -0.483903 
1 2.52014 0.996493 -2.77469 
1 2.61409 1.76277 -1.52977 
1 3.55472 0.899381 -2.39926 
1 3.0325 0.61503 -3.71453 
1 3.56766 0.0515471 0.425812 
1 2.50742 1.56015 0.65014 
1 2.6883 1.68735 1.71485 
1 2.90134 0.737283 1.26506 
1 2.62753 0.594565 0.232037 
1 3.53274 1.19224 0.469219 
1 -3.6074 3.33563 -0.529579 
2 -3.44307 2.01899 -3.65494 
2 -3.37585 3.27577 -2.92323 
1 -3.18161 3.03667 -1.48567 
2 -3.08887 2.16759 -1.32325 
1 -2.87391 2.59713 -3.15646 
1 -2.79705 2.64693 -0.583939 
1 -2.67492 3.36446 -2.37764 
1 -2.67219 2.32361 -2.11917 
1 -2.58867 3.67991 -0.295022 
2 -2.34899 2.75969 -1.36723 
1 -2.22337 3.63739 -1.35829 
1 -2.2074 1.89951 -1.22561 
1 -2.17565 1.89519 -0.161265 
1 -1.89905 2.1937 -3.1608 
1 -1.78002 3.3058 -2.98099 
1 -1.73463 2.78785 -0.705812 
1 -1.73626 2.92895 -1.97787 
1 -1.68893 1.87645 -2.16315 
2 -1.33423 2.79505 -3.52038 
1 -1.12469 3.57101 -1.13082 
1 -0.99765 2.40249 -1.44115 
1 -1.00839 2.52576 -2.70493 
2 -2.54584 3.61794 -3.28687 
2 -0.857207 2.5609 -0.592658 
2 -0.798189 1.86821 -2.165 
1 -0.655285 3.42548 -3.12339 
1 -0.62549 3.26335 -2.0484 
1 -0.524471 2.50768 -3.68337 
1 -0.433602 3.12143 -0.0927638 
1 -0.105205 3.06346 -1.13479 
1 -0.0536238 1.98457 -1.6789 
1 -0.102044 1.95804 -2.81562 
1 -0.0141583 2.19231 -0.53425 
2 0.0552855 3.54241 -2.5496 
1 0.374513 2.87346 -2.101 
1 0.37335 2.90375 -3.16749 
1 0.591527 3.28281 -0.296267 
1 0.893195 2.3828 -1.28647 
1 0.894542 1.95474 -3.38061 
1 0.921152 1.95865 -2.29945 
1 0.963293 3.46387 -1.28618 
1 1.06538 2.37354 -0.223627 
2 1.22286 2.96305 -1.9368 
1 1.33963 3.61439 -3.42676 
1 1.41391 2.81026 -2.77111 
2 1.56098 3.07792 -0.0127798 
2 1.81887 3.64772 -2.66673 
1 1.86586 2.38718 -1.88586 
1 1.84996 2.9117 -0.875014 
1 -3.61619 3.03568 1.55869 
1 -3.25225 3.19551 0.469319 
1 -3.16559 2.09063 0.300968 
1 -2.79624 2.56866 1.1871 
1 -2.51551 3.6116 1.22898 
2 -2.43795 1.98424 1.70853 
1 -2.19015 2.96239 0.392392 
1 -2.01425 1.98685 0.859478 
1 -1.81198 2.64188 1.63627 
2 -1.67731 3.56833 0.88805 
1 -1.54282 3.63305 1.77377 
1 -1.25658 2.48618 0.232864 
1 -0.886202 3.15749 1.03321 
1 -1.37709 3.58245 0.0447128 
1 -0.95417 2.09186 1.27864 
1 -0.258636 2.24009 0.495934 
1 -0.0815004 2.62383 1.72347 
1 0.157014 3.64471 1.82124 
1 0.217693 3.16677 0.807845 
1 0.80056 2.26214 0.832045 
1 1.01196 3.10004 1.553 
1 1.16283 3.63212 0.595299 
1 1.73042 1.88876 1.28772 
1 1.76607 2.84503 0.857341 
1 1.91981 3.51077 -1.80068 
1 1.91302 3.62564 1.7738 
1 3.55563 3.15727 -2.24233 
1 2.85254 3.01452 -0.368334 
1 3.54411 2.6015 -3.15279 
1 2.54053 2.46407 -3.48001 
1 3.57399 2.34448 -0.829713 
1 2.48635 3.03817 -2.5908 
1 3.67605 2.19818 -1.85412 
1 3.30624 3.59739 -3.18909 
1 2.81317 2.85425 -1.48727 
1 2.88002 2.00589 -2.53283 
2 2.55832 2.28949 -0.805539 
1 2.93996 3.41801 1.803 
1 3.59927 2.02358 1.19639 
1 2.22658 3.60825 0.263734 
1 2.13467 2.33403 -0.000357926 
1 3.27861 3.55137 0.7926 
1 2.77974 2.62455 0.967486 
2 2.44035 3.42332 1.09112 
1 3.24453 2.17895 0.149981 
1 -1.02262 -1.97041 2.13927 
1 -0.572541 -2.24863 3.03255 
1 -0.969088 -3.02543 2.19587 
1 -2.37123 -0.385416 2.19113 
1 -2.53038 -2.20946 2.3846 
1 -1.42148 -0.72342 2.94129 
2 -1.67864 -2.52108 2.40085 
1 -1.89916 -1.34323 2.13353 
1 -1.70786 -1.89016 3.04651 
1 -2.4659 -1.13865 3.14908 
1 -3.03965 -1.30224 2.25076 
1 -2.23668 -3.2264 2.3095 
1 -3.55471 -2.28286 2.00557 
1 -1.44412 -2.89294 3.17621 
2 -1.52311 -3.58955 2.63892 
2 -1.48158 -0.288021 2.1562 
2 -0.953615 -1.45229 2.8306 
1 -0.869421 -0.924061 2.04921 
1 -2.95711 -2.08276 3.4242 
2 -0.735131 -3.36397 3.0128 
1 -3.09653 -3.00892 2.89638 
2 -2.30568 -2.6643 3.1051 
1 -0.0826741 -1.30777 2.69132 
1 -2.27787 -3.52954 3.35448 
1 -3.0327 -0.234503 3.06302 
1 -0.200335 -0.199322 2.39495 
1 0.0293743 -3.15045 2.68306 
1 0.00830837 -2.22349 2.12972 
1 -0.543797 -0.157943 3.39034 
1 -3.27935 -3.57295 2.05124 
1 -0.611565 -1.18453 3.60031 
1 -3.65347 -1.28842 3.24403 
1 0.465212 -2.12319 3.27652 
1 0.492232 -0.681086 3.34772 
1 0.674062 -0.675816 2.14595 
1 0.853335 -3.12823 3.39041 
1 0.966255 -3.68204 2.46748 
2 0.985814 -1.40611 3.45636 
1 0.980437 -1.55138 2.58672 
1 0.935485 -2.61283 2.35677 
2 -2.25681 -0.512003 3.73089 
1 1.58712 -2.38535 3.15473 
1 1.75313 -0.162657 3.09726 
1 1.72385 -0.693091 2.17281 
1 1.83443 -1.30022 3.13816 
1 1.82871 -3.71501 3.10698 
2 -3.55927 0.416622 3.44424 
1 -3.5339 1.57033 2.99784 
1 -3.23351 0.340092 2.20832 
1 -2.81171 0.816836 3.13308 
1 -2.60139 1.81173 3.57307 
1 -2.69894 1.25367 2.17683 
2 -2.39718 0.466172 2.45657 
1 -2.00547 0.117791 3.14206 
1 -1.82693 1.13012 2.77064 
1 -1.08794 0.36969 2.62609 
1 -0.89597 0.808439 3.67091 
1 -0.827591 1.49016 2.88003 
1 -0.751223 1.13217 1.89027 
1 -0.075437 0.729136 2.89776 
1 0.00316141 1.57864 3.59379 
1 0.0953667 1.63231 2.38932 
2 -0.862969 1.70391 3.7248 
1 0.814979 0.171121 2.757 
1 0.988081 1.07363 3.39859 
1 1.04386 1.08536 2.30146 
2 1.60106 0.237781 2.29894 
1 1.82238 1.79902 2.38023 
1 1.93188 1.68071 3.47986 
1 1.93738 -1.89809 2.25549 
1 1.91872 -2.97037 2.32986 
2 3.58404 -1.58566 2.44921 
1 2.7729 -1.71419 2.93805 
2 2.22352 -1.96125 3.57464 
1 2.89843 -1.38675 1.94767 
1 2.63992 -0.692285 2.80801 
1 3.61748 -0.63563 2.40541 
2 3.59286 -3.01987 2.4105 
1 2.82859 -3.41495 2.58953 
2 2.95478 -1.08572 3.55432 
1 3.42005 -0.321598 3.42354 
1 3.50292 -3.28972 3.42322 
1 2.8562 -2.45497 2.12207 
1 3.5741 -2.33579 2.9764 
1 2.59546 -2.72666 3.34713 
1 3.63016 1.23404 1.97565 
1 2.86896 1.53118 2.83553 
1 2.04057 0.842235 2.77582 
2 2.74544 0.940483 2.16681 
2 2.58544 0.163272 3.11475 
1 3.32243 0.514153 2.7321 
1 2.47733 0.111292 2.18501 
1 -3.25708 3.3903 3.68195 
1 -3.23309 2.14993 2.08016 
1 -3.06579 2.59452 3.03636 
2 -2.92439 3.56086 2.85809 
1 -2.64619 3.06215 2.16362 
1 -2.22063 2.1231 2.55601 
1 -2.20413 2.92579 3.58112 
1 -1.71315 3.04691 2.65743 
1 -1.47997 2.18216 3.32314 
1 -1.25936 3.53527 3.45921 
1 -1.00436 2.34346 2.30233 
2 -0.907486 2.83242 3.05369 
1 -0.707867 3.41864 2.42128 
1 -0.214717 3.48423 3.38242 
1 -0.0750368 2.5867 2.80684 
2 0.330361 2.41165 3.57306 
2 0.587673 2.95462 2.33048 
1 0.74032 3.14466 3.26086 
1 0.90442 2.06535 2.99299 
1 0.888142 2.12614 1.91453 
1 1.47052 2.86069 2.52864 
1 1.58879 2.6751 3.62016 
1 2.39748 2.51064 2.91079 
1 3.65995 3.32531 2.71177 
1 2.22512 2.64025 1.85065 
1 2.79763 3.35468 3.39175 
1 3.39381 2.44629 3.2912 
1 3.22927 2.43825 2.22484 
2 2.34931 3.29878 2.49266 
