ITEM: TIMESTEP
100
ITEM: NUMBER OF ATOMS
500
ITEM: BOX BOUNDS xy xz yz pp pp pp
-3.7345 3.76438 0.029876
-3.7345 3.7345 0
-3.7345 3.7345 0
ITEM: ATOMS type xu yu zu 
1 3.21374 -1.89737 -3.5834 
1 -1.63943 -1.18849 -3.58497 
1 -2.95721 -2.08188 3.42508 
1 2.81142 -1.28954 -0.999967 
1 0.904928 2.06426 2.99299 
1 3.22827 2.43923 2.22335 
1 2.63935 -0.692651 2.80775 
1 -0.624803 3.26202 -2.0483 
1 2.74515 0.67405 -1.72366 
1 -3.11632 1.61823 -0.653638 
1 0.85349 -3.12878 3.39017 
1 0.727696 -3.00485 -0.960447 
1 -1.25645 2.48572 0.233352 
1 -1.02413 -1.97093 2.13974 
1 -2.631 0.256882 -3.44495 
1 -2.54826 -1.20177 1.25977 
1 -1.44415 -2.89297 3.17662 
1 -0.743799 0.328968 -2.86149 
1 1.03295 -0.870547 1.16602 
1 0.35169 -0.495401 -1.84157 
1 1.3398 3.61377 -3.42713 
1 3.5752 2.34499 -0.829573 
1 -2.01393 1.98699 0.860131 
1 -1.4055 -0.748642 0.0974898 
1 3.67666 2.19839 -1.8539 
1 2.8525 3.01447 -0.369361 
1 1.09943 0.143519 1.59322 
1 1.58388 -2.3837 3.15363 
1 -0.654931 3.42511 -3.12305 
1 3.16613 -0.272849 -1.288 
1 0.801075 -2.22324 -0.145057 
1 -2.12111 0.958754 0.925465 
1 -0.0194763 -1.38909 -1.43688 
1 1.04554 1.08401 2.3029 
1 1.85987 1.83541 -2.88175 
1 1.83394 -0.764168 0.422093 
1 2.48568 -1.55421 0.062305 
1 1.73023 -1.92897 -2.41009 
1 -3.23344 0.340829 2.20727 
1 -0.885445 3.15786 1.03267 
1 -1.83535 -2.30087 1.56057 
1 -3.1925 -2.00429 -1.79432 
1 -2.6989 1.2542 2.1776 
1 -3.33867 1.08955 -3.47904 
1 2.68877 1.68816 1.71309 
1 0.849613 -1.92721 -1.15173 
1 0.49242 -0.68197 3.34774 
1 -0.871095 -0.924918 2.04948 
1 3.74314 -0.290432 -2.19037 
1 3.22996 -0.203365 1.5234 
1 -0.857082 0.0942139 1.58144 
1 0.504185 -3.20697 0.053945 
1 -1.18529 1.74099 -0.536496 
1 -0.400453 1.09339 -2.20968 
1 -2.25594 -0.549539 -2.84881 
1 3.41856 -0.320011 3.42331 
1 -0.929945 -1.77462 -1.79198 
1 3.20674 1.62647 -3.50946 
1 0.0295379 -3.15067 2.68309 
1 -1.29543 -2.44552 -2.51241 
1 -3.25745 3.39067 3.68164 
1 -1.10545 0.273302 -1.86272 
1 -3.29994 -1.21635 -2.53928 
1 1.91999 3.5114 -1.80122 
1 -1.00435 2.34404 2.30214 
1 1.85036 2.91199 -0.876222 
1 0.887833 2.12527 1.91481 
1 -2.20637 1.89945 -1.22518 
1 0.988524 1.07266 3.39888 
1 1.92197 0.881683 1.68646 
1 2.88099 2.00744 -2.5334 
1 -0.166682 -2.42617 0.328737 
1 -0.969169 -3.02565 2.19586 
1 3.66496 -1.8716 -0.759286 
1 1.73002 1.88846 1.28736 
1 1.68654 0.839858 -0.451661 
1 3.27804 3.55107 0.792909 
1 -2.64737 3.06229 2.1646 
1 2.47857 0.112086 2.18552 
1 1.18528 0.222203 -1.94306 
1 -2.17537 1.89545 -0.160567 
1 0.132195 0.453573 -0.249929 
1 -0.201129 -0.200815 2.3941 
1 -1.37726 3.58221 0.0455597 
1 -1.81302 2.64224 1.6367 
1 3.30677 3.59895 -3.18907 
1 -1.90558 1.05458 -3.63946 
1 2.22381 2.64055 1.84945 
1 -0.543894 -0.158719 3.38982 
1 -0.1038 3.06218 -1.13521 
1 -0.997517 2.40197 -1.44038 
1 -1.21838 -3.12003 1.1077 
1 3.50226 -3.28863 3.42281 
1 0.837568 -1.43651 -2.0934 
1 3.32481 -0.894022 -3.11586 
1 3.56806 0.0517372 0.42437 
1 -3.6157 3.03739 1.56006 
1 0.218376 3.16725 0.807374 
1 -0.0746973 2.58637 2.80611 
1 -0.101585 1.95789 -2.81587 
1 -2.20386 2.92636 3.58154 
1 -3.60728 3.33588 -0.529787 
1 2.22671 3.60803 0.263398 
1 -2.87339 2.59757 -3.15659 
1 -2.50804 -2.18075 0.77778 
1 -1.73577 2.9286 -1.97796 
1 2.83069 -0.984584 -2.03734 
1 2.93871 3.41788 1.80198 
1 -1.16629 -2.31364 -0.824491 
1 1.82618 -1.93637 -0.696634 
1 2.29922 -2.81908 -0.326563 
1 1.58833 2.6743 3.62025 
1 3.21457 -1.82741 -2.51869 
1 2.51969 -3.66236 -0.992252 
1 2.85564 -2.45568 2.12408 
1 2.82577 -2.03286 1.06861 
1 0.740276 3.1444 3.26016 
1 -0.52423 2.50736 -3.68376 
1 -0.750778 1.12989 1.89056 
1 -3.02284 -3.09406 -3.50041 
1 -3.70414 -1.128 -1.54312 
1 -1.82732 1.12968 2.77167 
1 -3.67485 -1.40047 1.39427 
1 2.29928 -3.47008 -3.29899 
1 -0.193548 -2.9384 1.38947 
1 0.701933 -2.57106 0.880887 
1 0.337078 1.37701 0.30031 
1 -1.12939 1.47181 -2.96359 
1 2.36179 -1.36452 -3.29422 
1 -0.461577 -3.176 -2.582 
1 -1.49658 -1.21548 -2.52685 
1 -2.83598 -2.84962 1.47941 
1 -2.42513 -1.13034 -1.92613 
1 2.13474 2.33388 -0.00214106 
1 0.0174395 -1.32729 1.60997 
1 0.566319 0.381065 0.693516 
1 3.50195 1.35988 -1.24107 
1 1.91644 -0.845872 -2.52654 
1 -2.90952 0.435571 -2.39533 
1 -2.97008 1.4941 1.19129 
1 -3.24338 -0.465566 1.52541 
1 3.56582 -3.60006 -1.426 
1 0.799314 2.26126 0.832629 
1 1.38891 -1.90687 -3.42544 
1 -2.64714 -2.44264 -0.937263 
1 -2.79686 2.64695 -0.584038 
1 2.58807 -3.06957 0.824578 
1 -1.68792 1.87614 -2.16292 
1 1.23247 -2.87923 -3.02741 
1 2.50656 1.56018 0.64882 
1 1.91196 3.62644 1.77376 
1 0.422737 -1.57928 0.65629 
1 -0.530214 -0.131947 0.347903 
1 -3.16573 2.0908 0.300901 
1 -2.6745 3.3642 -2.37773 
1 0.957109 -3.72295 -2.37605 
1 -0.258424 2.24022 0.496646 
1 -3.55575 -2.28259 2.00539 
1 1.93676 -1.89848 2.25507 
1 -1.73486 2.78814 -0.705162 
1 3.32311 0.515833 2.73189 
1 3.59996 2.02576 1.19609 
1 -2.67131 2.32347 -2.11919 
1 1.75403 -0.160281 3.09847 
1 -3.19747 0.120684 -0.375937 
1 -0.0531059 1.98436 -1.67851 
1 3.24423 2.17886 0.149421 
1 3.6611 3.32459 2.71125 
1 1.04233 -3.27759 1.51583 
1 0.375505 2.87272 -2.10187 
1 1.4136 2.8101 -2.77109 
1 -0.0151461 2.19144 -0.533797 
1 3.54453 2.6028 -3.15486 
1 -2.61503 0.767056 -0.942173 
1 0.965975 1.18537 1.22844 
1 -3.27956 -3.57124 2.05216 
1 -3.23339 2.15064 2.08088 
1 1.9186 -2.97083 2.33183 
1 2.86038 -3.49017 -2.27972 
1 3.40672 0.654995 -0.485002 
1 3.24933 -2.82142 -3.07152 
1 -2.27744 -3.52902 3.35514 
1 -2.22009 2.12335 2.55594 
1 2.77872 2.62444 0.966473 
1 1.76593 -2.93989 -1.25927 
1 -1.44418 0.215509 0.686871 
1 3.6306 1.235 1.97461 
1 -1.11132 -2.83741 0.0883874 
1 -3.25228 3.19599 0.469447 
1 -2.92055 0.997599 0.20009 
1 0.00679265 -2.22392 2.12918 
1 1.10511 -0.624031 -1.13832 
1 2.90147 0.737712 1.2643 
1 -2.37246 -0.385338 2.19096 
1 1.4311 1.54967 0.289163 
1 -1.90067 -1.34356 2.13414 
1 1.93278 1.68087 3.47922 
1 3.52876 -1.41122 0.341207 
1 0.789858 1.42545 -0.66448 
1 -2.46656 -1.13788 3.14927 
1 3.39376 2.44561 3.28955 
1 -0.839186 -2.11339 1.09818 
1 -1.8552 -2.73057 -1.61017 
1 -3.03462 -0.234106 3.0627 
1 0.467417 -1.41584 -3.26889 
1 3.12256 -2.74493 -0.982403 
1 0.837645 0.41349 -0.991771 
1 -2.4239 -0.0445202 1.08669 
1 -3.18124 3.03664 -1.48605 
1 0.114698 0.550514 -3.54087 
1 2.04486 0.843108 2.77826 
1 1.46128 -0.81739 -3.52467 
1 -0.611723 -1.1849 3.60042 
1 0.291825 0.36582 -2.51076 
1 -0.886519 -1.25412 -0.835126 
1 0.0689237 -0.324962 1.29655 
1 3.1379 -3.43593 -0.124291 
1 -1.54238 3.63274 1.77409 
1 2.45744 -0.33773 -3.58547 
1 3.47456 -2.6816 -1.97292 
1 1.01241 3.09905 1.55251 
1 0.59082 3.28506 -0.29675 
1 -3.59731 -2.32565 0.927536 
1 0.966777 -3.68202 2.46711 
1 -1.44274 -3.51833 -2.17757 
1 1.64516 0.585669 0.608403 
1 -3.53291 1.57005 2.99778 
1 3.57458 -2.3343 2.97668 
1 -1.19574 1.42748 0.507548 
1 -0.601058 -0.60301 -2.30024 
1 2.39701 2.51147 2.91026 
1 -1.47982 2.1824 3.3232 
1 1.82334 1.79846 2.3797 
1 0.464433 -2.12387 3.27619 
1 2.81739 -0.491969 -0.0363601 
1 -1.35083 -0.734239 -1.59957 
1 2.82891 -3.41631 2.58949 
1 -1.87379 -1.69323 -1.24062 
1 2.77176 -1.71413 2.9394 
1 -3.6795 0.136213 -3.15027 
1 2.09884 -0.234249 -1.65523 
1 1.1914 -0.0828941 -0.149096 
1 2.79915 3.35418 3.39213 
1 -1.10452 -2.12942 -3.54058 
1 0.0260802 -2.18507 -2.24311 
1 -3.6534 -1.28676 3.2441 
1 -3.41814 -3.08016 -0.537764 
1 -2.00338 -0.720931 -0.789639 
1 -2.85328 -1.39697 -0.947107 
1 -2.5157 3.61131 1.22999 
1 0.0268952 1.63599 1.32704 
1 -0.234332 1.22972 -0.902394 
1 0.292665 -2.46702 -3.21777 
1 0.986532 -1.85346 1.57841 
1 -0.433205 0.790505 0.861312 
1 -1.90124 0.876364 -0.11645 
1 -3.14285 -2.20969 -0.0196081 
1 -3.1578 -3.1986 0.485195 
1 1.82894 -3.71782 3.10679 
1 1.47772 -3.60118 -0.45238 
1 0.814539 0.169193 2.75631 
1 -1.81586 0.483922 -2.73242 
1 -1.70881 -1.89031 3.04702 
1 -1.83985 -3.16237 -0.632348 
1 0.320217 -3.52107 -3.25079 
1 -2.19013 2.96241 0.393263 
1 0.592104 1.12406 -1.7235 
1 0.93489 -2.61287 2.35428 
1 1.84957 -2.52028 1.34927 
1 -2.27805 -0.104067 0.0390059 
1 -2.94537 -0.399716 -1.29365 
1 1.72319 -0.688321 2.17309 
1 2.81267 -0.0342015 -2.59669 
1 -3.06516 2.59362 3.03783 
1 -1.8986 2.19379 -3.16053 
1 2.87064 1.53322 2.83346 
1 0.922243 1.95774 -2.29927 
1 -0.0763346 0.727785 2.89684 
1 -0.572933 -2.24931 3.03253 
1 -0.95477 2.09215 1.27872 
1 -0.0834661 -1.30798 2.69131 
1 -0.119311 -2.36096 -0.789045 
1 0.373187 2.90355 -3.16828 
1 3.53261 1.19277 0.469116 
1 0.894519 1.95454 -3.38072 
1 0.00366575 1.57803 3.59292 
1 -0.1449 0.313147 -1.43145 
1 -0.835965 -0.215475 -0.706048 
1 -2.1288 -2.49056 -3.51708 
1 -0.707832 3.41851 2.42183 
1 -2.29777 -2.10345 -2.35927 
1 -0.0815206 2.62321 1.72236 
1 -1.00811 2.5254 -2.70521 
1 -0.868301 0.739588 -0.196752 
1 1.86655 2.38729 -1.88662 
1 -1.9664 -2.24227 -0.120514 
1 1.54747 -2.88562 0.365695 
1 -3.04054 -1.30193 2.25081 
1 0.398103 -0.601765 0.300031 
1 -2.00664 0.11644 3.14184 
1 -1.77946 3.30604 -2.98078 
1 2.04667 -0.149012 1.24279 
1 3.55575 3.15683 -2.24304 
1 1.7886 0.146271 -2.78577 
1 -2.23708 -3.22677 2.30987 
1 -2.22272 3.63701 -1.35803 
1 -0.689296 -1.05183 0.868909 
1 0.874714 -0.508989 -2.73208 
1 2.59365 -2.72571 3.34487 
1 -0.433778 3.12092 -0.0932974 
1 -3.52238 0.453043 -1.45242 
1 -0.214642 3.48385 3.38278 
1 -3.44243 0.552776 1.1951 
1 -1.12366 3.56983 -1.1301 
1 -0.411963 -3.48982 0.517436 
1 1.96874 0.670352 -3.66516 
1 1.83291 -1.2989 3.13591 
1 -1.70949 1.52779 1.77816 
1 0.893471 2.38319 -1.28664 
1 1.52366 -1.8279 0.539804 
1 -3.03972 1.37883 -1.77952 
1 -3.43369 1.79308 -2.73557 
1 -3.09645 -3.00825 2.89772 
1 -1.60512 -0.641153 1.33663 
1 -2.05251 0.954203 -1.80224 
1 0.97899 -1.55198 2.58644 
1 2.62889 0.594635 0.231502 
1 2.81335 2.85374 -1.48827 
1 1.9614 -1.3495 1.37106 
1 -2.12839 -0.0987915 -1.88763 
1 -2.59973 1.81079 3.57324 
1 -2.58829 3.67958 -0.294934 
1 -1.71372 3.0475 2.65766 
1 -3.4639 -3.38478 -2.57753 
1 -2.46303 1.36459 -2.76364 
1 1.46959 2.85954 2.5282 
1 0.126907 -3.50105 -1.75471 
1 1.14404 0.992515 -2.90763 
1 0.18026 0.636748 1.80316 
1 1.06502 2.37561 -0.223599 
1 2.46626 0.269122 -0.76436 
1 1.04606 0.123039 -3.59358 
1 2.54071 2.46388 -3.48068 
1 -2.55363 -1.54209 -3.22365 
1 -0.482316 -2.99715 -3.69677 
1 -2.34302 -3.14549 -2.6644 
1 -2.81192 0.816087 3.1333 
1 -1.6977 0.292139 -0.987425 
1 3.03081 0.616778 -3.71545 
1 0.156973 3.6437 1.8219 
1 3.73431 -0.762023 -0.527265 
1 1.723 1.21067 -1.90718 
1 -2.4193 -1.32283 0.020081 
1 -2.9449 -3.08945 -1.71668 
1 2.79399 -0.942218 0.934335 
1 0.0576082 -1.45687 -0.323197 
1 0.0957641 1.63108 2.38955 
1 1.765 2.84389 0.855294 
1 -0.925716 -1.75043 0.0712491 
1 -0.895444 0.808421 3.67031 
1 -0.0768653 -0.48944 -3.19446 
1 -0.312857 -3.40602 -0.64545 
1 1.95333 -2.99355 -2.28702 
1 0.152357 -0.50319 -0.747452 
1 1.75461 1.82776 -0.912921 
1 2.61422 1.76166 -1.53104 
1 -1.11006 1.32696 -1.48008 
1 1.10946 -1.20613 -0.251458 
1 -1.814 0.469838 1.82116 
1 1.163 3.63254 0.594151 
1 -1.42184 -0.724196 2.94163 
1 2.4902 -2.15032 -1.63211 
1 3.55545 0.901813 -2.39877 
1 2.89759 -1.38796 1.94848 
1 -2.09318 -3.16707 0.513284 
1 2.66103 1.45183 -0.465051 
1 0.977916 -2.6464 -1.96543 
1 3.18922 -2.39346 0.0840911 
1 -0.716377 -2.86841 -1.59781 
1 -0.828005 1.49012 2.87938 
1 3.6163 -0.634674 2.40497 
1 -1.6888 -1.53924 0.741654 
1 2.4863 3.03945 -2.59217 
1 3.41202 -3.12184 1.51193 
1 -0.523329 -1.53081 -2.85921 
1 -1.08898 0.368564 2.62616 
1 -3.2965 -2.27232 -2.87078 
1 -1.44767 -0.163128 -3.47968 
1 -3.12749 -0.708778 -3.47895 
1 -1.25908 3.53506 3.4593 
1 0.963749 3.4641 -1.28606 
1 -3.11129 -0.69484 0.434426 
1 -1.40552 -3.21017 -3.23522 
1 2.28117 -2.42046 -3.15314 
1 0.67354 -0.676972 2.1434 
1 2.52144 0.997239 -2.7735 
1 -2.5314 -2.20963 2.3851 
1 1.8221 -1.28403 -1.5535 
1 -2.79691 2.56846 1.18735 
1 2.00113 -0.705128 -0.63524 
2 1.63497 0.0630656 -0.939077 
2 0.406217 -3.00982 -2.51523 
2 -0.935904 -0.792681 -3.1266 
2 3.62494 -0.691915 0.894924 
2 2.43865 3.42272 1.09082 
2 -3.37556 3.27635 -2.9234 
2 1.81849 3.64888 -2.66724 
2 -0.35262 1.13699 -3.11806 
2 -1.63727 -1.46344 -0.398425 
2 1.77833 -3.38219 1.03132 
2 -1.3341 2.79489 -3.52037 
2 -0.797515 1.86831 -2.16463 
2 0.187538 -2.65066 -1.54506 
2 2.58772 0.161559 3.11455 
2 -3.13194 -1.56821 0.694782 
2 -3.5603 0.418059 3.44485 
2 -2.54581 3.61667 -3.28719 
2 1.28045 -0.664312 -1.97316 
2 1.25243 -0.168598 0.732852 
2 -1.45233 0.0874133 -0.173311 
2 -1.67767 3.56764 0.888699 
2 2.19923 1.06526 -1.13843 
2 2.04678 -0.00791635 -0.0130565 
2 -0.709647 -3.65287 1.60028 
2 2.71498 -2.55952 -2.40347 
2 1.24683 -1.29349 -2.83623 
2 2.95542 -1.08476 3.55421 
2 2.57434 -3.03086 -1.60398 
2 -0.551217 -0.881165 -0.0949758 
2 1.56173 3.07867 -0.0142123 
2 0.587251 2.95492 2.32975 
2 -3.44167 2.01982 -3.65595 
2 1.59792 -2.1391 -1.56403 
2 -1.30153 1.01683 -2.26573 
2 -3.08799 2.16763 -1.32326 
2 -0.877857 0.603875 -1.05694 
2 -3.02197 0.178409 0.495796 
2 -2.39744 0.466214 2.45644 
2 2.7139 -2.07337 -0.623581 
2 3.33082 -1.89162 -1.59069 
2 -1.75649 -1.87525 -3.0217 
2 3.45119 -3.05504 0.621729 
2 -1.48306 -0.288458 2.15669 
2 2.26639 -2.33937 0.43347 
2 2.21987 -1.96086 3.57393 
2 0.872553 -2.11783 -2.67244 
2 -1.27833 0.897169 1.2317 
2 -1.44752 -0.299513 -2.47542 
2 -0.734844 -3.36392 3.01299 
2 2.74617 0.941466 2.16586 
2 0.154204 -1.05188 -2.51238 
2 1.22347 2.96356 -1.9367 
2 -2.65791 0.65544 1.55645 
2 -2.34846 2.75953 -1.36726 
2 -2.59564 -2.89981 -0.170766 
2 -2.43804 1.98389 1.70868 
2 -1.61806 -2.42086 0.698584 
2 -3.42521 -3.66474 1.17482 
2 -1.52277 -3.58935 2.63914 
2 0.0555493 3.54209 -2.54959 
2 -3.50959 -2.5859 -1.23449 
2 -2.30579 -2.66379 3.10585 
2 3.53769 1.5346 -0.362923 
2 0.985816 -1.40777 3.45617 
2 -2.80582 -0.651068 -0.433706 
2 -2.87804 -0.447332 -2.22441 
2 0.330509 2.41133 3.57237 
2 -2.13666 -0.748184 0.622426 
2 0.394185 1.27615 -2.56791 
2 3.59205 -3.01887 2.41171 
2 -0.53114 -2.40479 -2.93874 
2 -0.465918 1.53791 -0.053189 
2 -3.07089 -3.67945 -1.06222 
2 3.58382 -1.5848 2.44984 
2 -0.22219 -1.9252 -3.66726 
2 -2.02634 -3.15556 1.43171 
2 0.39047 -3.43682 0.93234 
2 1.42771 -2.7096 -0.49101 
2 -2.25632 -0.512679 3.73194 
2 -2.92387 3.56187 2.85871 
2 2.55877 2.28934 -0.807006 
2 -1.79309 1.17629 -0.937936 
2 0.0393285 -2.1148 1.2306 
2 -3.45857 -1.54175 -3.37917 
2 0.942911 0.788276 -0.00101044 
2 -3.27057 -1.39045 -0.193166 
2 -0.907528 2.83202 3.05354 
2 -1.28358 -1.45586 1.49049 
2 2.50264 -0.661735 1.7601 
2 -0.459886 -0.591405 -1.41582 
2 -0.862383 1.70375 3.72448 
2 2.53481 -3.21528 1.72071 
2 2.34921 3.29851 2.49123 
2 2.77261 -0.0731573 0.772972 
2 1.60203 0.242171 2.30116 
2 -1.67945 -2.52158 2.40128 
2 -0.954144 -1.45333 2.83122 
2 -0.857961 2.56028 -0.591902 
2 -2.86965 -1.95254 1.57452 
2 -3.64374 -2.51754 -3.67443 
