ITEM: TIMESTEP
101
ITEM: NUMBER OF ATOMS
500
ITEM: BOX BOUNDS xy xz yz pp pp pp
-3.7345 3.77185 0.037345
-3.7345 3.7345 0
-3.7345 3.7345 0
ITEM: ATOMS type xu yu zu 
1 0.0276296 -2.18507 -2.24311 
1 -0.927985 -1.77462 -1.79198 
1 -0.521125 -1.53081 -2.85921 
1 -1.29414 -2.44552 -2.51241 
2 -1.75463 -1.87525 -3.0217 
1 -3.29742 -1.21635 -2.53928 
1 -1.16486 -2.31364 -0.824491 
1 -3.29504 -2.27232 -2.87078 
1 -0.715511 -2.86841 -1.59781 
1 -1.49406 -1.21548 -2.52685 
1 -2.29614 -2.10345 -2.35927 
1 -2.85094 -1.39697 -0.947107 
1 -2.55144 -1.54209 -3.22365 
1 -3.12446 -0.708778 -3.47895 
1 -2.34243 -3.14549 -2.6644 
1 -0.117937 -2.36096 -0.789045 
1 -3.19077 -2.00429 -1.79432 
1 -2.42252 -1.13034 -1.92613 
1 -2.64585 -2.44264 -0.937263 
1 -1.85419 -2.73057 -1.61017 
1 -0.597927 -0.60301 -2.30024 
1 -0.884039 -1.25412 -0.835126 
1 -2.25275 -0.549539 -2.84881 
2 -1.635 -1.46344 -0.398425 
1 -1.87175 -1.69323 -1.24062 
1 -2.94426 -3.08945 -1.71668 
2 -0.52981 -2.40479 -2.93874 
1 -1.34783 -0.734239 -1.59957 
1 -3.46356 -3.38478 -2.57753 
2 -0.932962 -0.792681 -3.1266 
1 -2.00036 -0.720931 -0.789639 
1 -0.461019 -3.176 -2.582 
1 -0.0171309 -1.38909 -1.43688 
1 -0.832446 -0.215475 -0.706048 
2 -0.456743 -0.591405 -1.41582 
1 -2.94203 -0.399716 -1.29365 
1 -1.405 -3.21017 -3.23522 
2 -0.548364 -0.881165 -0.0949758 
2 0.156887 -1.05188 -2.51238 
1 0.155589 -0.50319 -0.747452 
2 -1.44408 -0.299513 -2.47542 
2 -2.80273 -0.651068 -0.433706 
1 -1.10292 -2.12942 -3.54058 
1 0.0598858 -1.45687 -0.323197 
2 -3.45638 -1.54175 -3.37917 
2 -3.26822 -1.39045 -0.193166 
1 -1.63688 -1.18849 -3.58497 
1 -1.83927 -3.16237 -0.632348 
1 -3.41748 -3.08016 -0.537764 
1 -0.312529 -3.40602 -0.64545 
2 -2.87475 -0.447332 -2.22441 
1 -1.44252 -3.51833 -2.17757 
1 -1.96491 -2.24227 -0.120514 
1 -3.0222 -3.09406 -3.50041 
1 -1.4441 -0.163128 -3.47968 
2 -3.64252 -2.51754 -3.67443 
1 0.127141 -3.50105 -1.75471 
2 -2.59481 -2.89981 -0.170766 
1 -0.0736202 -0.48944 -3.19446 
2 -3.50844 -2.5859 -1.23449 
1 -2.12755 -2.49056 -3.51708 
1 -2.12475 -0.0987915 -1.88763 
2 0.188622 -2.65066 -1.54506 
1 0.293932 -2.46702 -3.21777 
1 0.32043 -3.52107 -3.25079 
1 0.354929 -0.495401 -1.84157 
2 0.406941 -3.00982 -2.51523 
1 0.469735 -1.41584 -3.26889 
1 0.728425 -3.00485 -0.960447 
1 0.802586 -2.22324 -0.145057 
1 0.839866 -1.43651 -2.0934 
1 0.85142 -1.92721 -1.15173 
2 -3.07083 -3.67945 -1.06222 
2 0.87417 -2.11783 -2.67244 
1 0.87794 -0.508989 -2.73208 
1 0.979004 -2.6464 -1.96543 
1 1.10822 -0.624031 -1.13832 
1 1.11199 -1.20613 -0.251458 
1 1.19505 -0.0828941 -0.149096 
2 -0.220381 -1.9252 -3.66726 
1 1.23332 -2.87923 -3.02741 
2 1.24928 -1.29349 -2.83623 
1 -0.481578 -2.99715 -3.69677 
2 1.28352 -0.664312 -1.97316 
1 1.39074 -1.90687 -3.42544 
1 -3.70154 -1.128 -1.54312 
2 1.42873 -2.7096 -0.49101 
1 -3.14132 -2.20969 -0.0196081 
1 0.957121 -3.72295 -2.37605 
1 1.4642 -0.81739 -3.52467 
1 1.47785 -3.60118 -0.45238 
2 1.59952 -2.1391 -1.56403 
1 1.73204 -1.92897 -2.41009 
1 1.76673 -2.93989 -1.25927 
1 1.82455 -1.28403 -1.5535 
1 1.82798 -1.93637 -0.696634 
1 -2.54573 -1.20177 1.25977 
1 -1.83391 -2.30087 1.56057 
1 -0.837565 -2.11339 1.09818 
1 -1.68661 -1.53924 0.741654 
2 0.0409482 -2.1148 1.2306 
2 -2.13368 -0.748184 0.622426 
1 -1.60203 -0.641153 1.33663 
1 -3.59591 -2.32565 0.927536 
2 -1.2813 -1.45586 1.49049 
1 -1.21777 -3.12003 1.1077 
2 -2.86787 -1.95254 1.57452 
2 -1.61675 -2.42086 0.698584 
1 -2.50648 -2.18075 0.77778 
1 -3.10825 -0.69484 0.434426 
1 -0.411718 -3.48982 0.517436 
2 -3.12978 -1.56821 0.694782 
1 -0.686613 -1.05183 0.868909 
1 -2.83509 -2.84962 1.47941 
1 -3.24011 -0.465566 1.52541 
1 -0.192752 -2.9384 1.38947 
1 0.0198467 -1.32729 1.60997 
1 -0.526611 -0.131947 0.347903 
2 -0.709566 -3.65287 1.60028 
1 0.0723333 -0.324962 1.29655 
1 -1.40252 -0.748642 0.0974898 
1 -2.09262 -3.16707 0.513284 
1 -0.923732 -1.75043 0.0712491 
1 -2.42021 -0.0445202 1.08669 
2 -2.02576 -3.15556 1.43171 
1 -3.15726 -3.1986 0.485195 
1 -1.11043 -2.83741 0.0883874 
1 -0.165374 -2.42617 0.328737 
1 -3.67252 -1.40047 1.39427 
1 0.401235 -0.601765 0.300031 
2 0.390768 -3.43682 0.93234 
1 0.504713 -3.20697 0.053945 
1 0.424893 -1.57928 0.65629 
1 0.703096 -2.57106 0.880887 
1 0.988413 -1.85346 1.57841 
1 1.03581 -0.870547 1.16602 
1 1.04279 -3.27759 1.51583 
2 -3.42514 -3.66474 1.17482 
2 1.256 -0.168598 0.732852 
1 -2.41688 -1.32283 0.020081 
1 -2.27442 -0.104067 0.0390059 
1 1.54831 -2.88562 0.365695 
1 1.52557 -1.8279 0.539804 
2 1.77869 -3.38219 1.03132 
1 1.83691 -0.764168 0.422093 
1 -3.33384 1.08955 -3.47904 
1 -3.51819 0.453043 -1.45242 
1 -3.42816 1.79308 -2.73557 
1 -3.11097 1.61823 -0.653638 
1 -3.19362 0.120684 -0.375937 
1 -3.03461 1.37883 -1.77952 
1 -2.90535 0.435571 -2.39533 
1 -2.627 0.256882 -3.44495 
1 -2.61053 0.767056 -0.942173 
1 -2.45793 1.36459 -2.76364 
1 -2.04782 0.954203 -1.80224 
1 -1.90079 1.05458 -3.63946 
1 -1.89663 0.876364 -0.11645 
2 -1.78817 1.17629 -0.937936 
1 -1.81164 0.483922 -2.73242 
1 -1.69367 0.292139 -0.987425 
2 -1.44851 0.0874133 -0.173311 
2 -1.29678 1.01683 -2.26573 
1 -1.17981 1.74099 -0.536496 
1 -1.12418 1.47181 -2.96359 
1 -1.105 1.32696 -1.48008 
1 -1.10144 0.273302 -1.86272 
1 -3.67563 0.136213 -3.15027 
1 -0.863827 0.739588 -0.196752 
2 -0.873519 0.603875 -1.05694 
1 -0.739736 0.328968 -2.86149 
2 -0.460646 1.53791 -0.053189 
1 -0.395625 1.09339 -2.20968 
2 -0.347749 1.13699 -3.11806 
1 -0.229368 1.22972 -0.902394 
1 -0.140852 0.313147 -1.43145 
1 0.118983 0.550514 -3.54087 
1 0.136383 0.453573 -0.249929 
1 0.295925 0.36582 -2.51076 
2 0.399196 1.27615 -2.56791 
1 0.596963 1.12406 -1.7235 
1 0.795018 1.42545 -0.66448 
1 0.841793 0.41349 -0.991771 
1 1.04992 0.123039 -3.59358 
1 1.14877 0.992515 -2.90763 
1 1.18924 0.222203 -1.94306 
2 1.63877 0.0630656 -0.939077 
1 1.69112 0.839858 -0.451661 
1 1.72795 1.21067 -1.90718 
1 1.76017 1.82776 -0.912921 
1 1.79248 0.146271 -2.78577 
1 1.86544 1.83541 -2.88175 
1 -3.43815 0.552776 1.1951 
1 -2.96485 1.4941 1.19129 
1 -2.91582 0.997599 0.20009 
2 -3.01805 0.178409 0.495796 
2 -2.65352 0.65544 1.55645 
1 -2.11642 0.958754 0.925465 
1 -1.8098 0.469838 1.82116 
1 -1.70422 1.52779 1.77816 
1 -1.44023 0.215509 0.686871 
2 -1.2737 0.897169 1.2317 
1 -1.19057 1.42748 0.507548 
1 -0.853254 0.0942139 1.58144 
1 -0.42868 0.790505 0.861312 
1 0.0322656 1.63599 1.32704 
1 0.184632 0.636748 1.80316 
1 0.342189 1.37701 0.30031 
1 0.570434 0.381065 0.693516 
1 0.970895 1.18537 1.22844 
2 0.947434 0.788276 -0.00101044 
1 1.10331 0.143519 1.59322 
1 1.43638 1.54967 0.289163 
1 1.64948 0.585669 0.608403 
1 1.85079 -2.52028 1.34927 
1 1.91933 -0.845872 -2.52654 
1 1.92659 0.881683 1.68646 
1 1.95407 -2.99355 -2.28702 
1 1.96379 -1.3495 1.37106 
1 1.97315 0.670352 -3.66516 
1 2.00415 -0.705128 -0.63524 
1 2.28249 -2.42046 -3.15314 
2 2.57505 -3.03086 -1.60398 
1 3.56596 -3.60006 -1.426 
1 3.12355 -2.74493 -0.982403 
1 3.25024 -2.82142 -3.07152 
1 3.66682 -1.8716 -0.759286 
1 3.16959 -0.272849 -1.288 
1 3.13819 -3.43593 -0.124291 
1 2.81637 -0.0342015 -2.59669 
2 2.71616 -2.55952 -2.40347 
1 2.10234 -0.234249 -1.65523 
1 3.74658 -0.290432 -2.19037 
1 2.82064 -0.491969 -0.0363601 
2 3.33266 -1.89162 -1.59069 
1 2.81386 -1.28954 -0.999967 
1 3.21558 -1.89737 -3.5834 
2 2.71557 -2.07337 -0.623581 
1 3.73728 -0.762023 -0.527265 
1 2.51976 -3.66236 -0.992252 
1 3.32765 -0.894022 -3.11586 
1 3.47561 -2.6816 -1.97292 
1 2.30013 -2.81908 -0.326563 
1 2.86062 -3.49017 -2.27972 
1 3.21648 -1.82741 -2.51869 
1 2.29954 -3.47008 -3.29899 
1 2.83344 -0.984584 -2.03734 
1 2.46083 -0.33773 -3.58547 
1 2.49179 -2.15032 -1.63211 
1 2.36416 -1.36452 -3.29422 
2 2.05051 -0.00791635 -0.0130565 
2 2.77627 -0.0731573 0.772972 
2 2.53533 -3.21528 1.72071 
2 2.26779 -2.33937 0.43347 
1 2.58873 -3.06957 0.824578 
1 3.23349 -0.203365 1.5234 
2 3.45187 -3.05504 0.621729 
2 3.62798 -0.691915 0.894924 
2 2.50571 -0.661735 1.7601 
1 3.41263 -3.12184 1.51193 
1 2.79679 -0.942218 0.934335 
1 2.48786 -1.55421 0.062305 
1 2.05026 -0.149012 1.24279 
1 3.19056 -2.39346 0.0840911 
1 2.82747 -2.03286 1.06861 
1 3.53108 -1.41122 0.341207 
1 3.2121 1.62647 -3.50946 
2 3.54296 1.5346 -0.362923 
1 2.47026 0.269122 -0.76436 
1 3.50705 1.35988 -1.24107 
2 2.20403 1.06526 -1.13843 
1 2.66621 1.45183 -0.465051 
1 2.74955 0.67405 -1.72366 
1 3.41111 0.654995 -0.485002 
1 2.52617 0.997239 -2.7735 
1 2.61972 1.76166 -1.53104 
1 3.56009 0.901813 -2.39877 
1 3.03516 0.616778 -3.71545 
1 3.57184 0.0517372 0.42437 
1 2.51186 1.56018 0.64882 
1 2.69419 1.68816 1.71309 
1 2.90594 0.737712 1.2643 
1 2.63322 0.594635 0.231502 
1 3.53754 1.19277 0.469116 
1 -3.60021 3.33588 -0.529787 
2 -3.43591 2.01982 -3.65595 
2 -3.36855 3.27635 -2.9234 
1 -3.17447 3.03664 -1.48605 
2 -3.08209 2.16763 -1.32326 
1 -2.86706 2.59757 -3.15659 
1 -2.79048 2.64695 -0.584038 
1 -2.6674 3.3642 -2.37773 
1 -2.66526 2.32347 -2.11919 
1 -2.58088 3.67958 -0.294934 
2 -2.34197 2.75953 -1.36726 
1 -2.21535 3.63701 -1.35803 
1 -2.20074 1.89945 -1.22518 
1 -2.16974 1.89545 -0.160567 
1 -1.89267 2.19379 -3.16053 
1 -1.77242 3.30604 -2.98078 
1 -1.72834 2.78814 -0.705162 
1 -1.72911 2.9286 -1.97796 
1 -1.68231 1.87614 -2.16292 
2 -1.32757 2.79489 -3.52037 
1 -1.11636 3.56983 -1.1301 
1 -0.991381 2.40197 -1.44038 
1 -1.00185 2.5254 -2.70521 
2 -2.53846 3.61667 -3.28719 
2 -0.851666 2.56028 -0.591902 
2 -0.791912 1.86831 -2.16463 
1 -0.647771 3.42511 -3.12305 
1 -0.617807 3.26202 -2.0483 
1 -0.517988 2.50736 -3.68376 
1 -0.426923 3.12092 -0.0932974 
1 -0.0970032 3.06218 -1.13521 
1 -0.047387 1.98436 -1.67851 
1 -0.0958922 1.95789 -2.81587 
1 -0.00922014 2.19144 -0.533797 
2 0.0628259 3.54209 -2.54959 
1 0.382112 2.87272 -2.10187 
1 0.379825 2.90355 -3.16828 
1 0.59784 3.28506 -0.29675 
1 0.899589 2.38319 -1.28664 
1 0.900208 1.95454 -3.38072 
1 0.927935 1.95774 -2.29927 
1 0.970947 3.4641 -1.28606 
1 1.07113 2.37561 -0.223599 
2 1.23017 2.96356 -1.9367 
1 1.34715 3.61377 -3.42713 
1 1.42014 2.8101 -2.77109 
2 1.56855 3.07867 -0.0142123 
2 1.82588 3.64888 -2.66724 
1 1.87267 2.38729 -1.88662 
1 1.85701 2.91199 -0.876222 
1 -3.60892 3.03739 1.56006 
1 -3.24535 3.19599 0.469447 
1 -3.15991 2.0908 0.300901 
1 -2.79061 2.56846 1.18735 
1 -2.50835 3.61131 1.22999 
2 -2.43232 1.98389 1.70868 
1 -2.18343 2.96241 0.393263 
1 -2.00821 1.98699 0.860131 
1 -1.80664 2.64224 1.6367 
2 -1.67036 3.56764 0.888699 
1 -1.53501 3.63274 1.77409 
1 -1.25023 2.48572 0.233352 
1 -0.878553 3.15786 1.03267 
1 -1.36995 3.58221 0.0455597 
1 -0.948943 2.09215 1.27872 
1 -0.252449 2.24022 0.496646 
1 -0.0751629 2.62321 1.72236 
1 0.164351 3.6437 1.8219 
1 0.225278 3.16725 0.807374 
1 0.805309 2.26126 0.832629 
1 1.01924 3.09905 1.55251 
1 1.17036 3.63254 0.594151 
1 1.73564 1.88846 1.28736 
1 1.77158 2.84389 0.855294 
1 1.92724 3.5114 -1.80122 
1 1.91932 3.62644 1.77376 
1 3.56264 3.15683 -2.24304 
1 2.85925 3.01447 -0.369361 
1 3.55087 2.6028 -3.15486 
1 2.54691 2.46388 -3.48068 
1 3.58128 2.34499 -0.829573 
1 2.49307 3.03945 -2.59217 
1 3.68259 2.19839 -1.8539 
1 3.3141 3.59895 -3.18907 
1 2.81994 2.85374 -1.48827 
1 2.88673 2.00744 -2.5334 
2 2.5648 2.28934 -0.807006 
1 2.94586 3.41788 1.80198 
1 3.60572 2.02576 1.19609 
1 2.23405 3.60803 0.263398 
1 2.14081 2.33388 -0.00214106 
1 3.28532 3.55107 0.792909 
1 2.78508 2.62444 0.966473 
2 2.44581 3.42272 1.09082 
1 3.25015 2.17886 0.149421 
1 -1.02237 -1.97093 2.13974 
1 -0.571448 -2.24931 3.03253 
1 -0.96846 -3.02565 2.19586 
1 -2.36911 -0.385338 2.19096 
1 -2.52988 -2.20963 2.3851 
1 -1.41883 -0.724196 2.94163 
2 -1.67824 -2.52158 2.40128 
1 -1.89828 -1.34356 2.13414 
1 -1.70697 -1.89031 3.04702 
1 -2.46396 -1.13788 3.14927 
1 -3.03811 -1.30193 2.25081 
1 -2.23657 -3.22677 2.30987 
1 -3.5543 -2.28259 2.00539 
1 -1.44331 -2.89297 3.17662 
2 -1.52263 -3.58935 2.63914 
2 -1.47961 -0.288458 2.15669 
2 -0.951863 -1.45333 2.83122 
1 -0.868286 -0.924918 2.04948 
1 -2.95556 -2.08188 3.42508 
2 -0.734474 -3.36392 3.01299 
1 -3.09573 -3.00825 2.89772 
2 -2.30472 -2.66379 3.10585 
1 -0.0810396 -1.30798 2.69131 
1 -2.27723 -3.52902 3.35514 
1 -3.03112 -0.234106 3.0627 
1 -0.197596 -0.200815 2.3941 
1 0.0301218 -3.15067 2.68309 
1 0.00830323 -2.22392 2.12918 
1 -0.540318 -0.158719 3.38982 
1 -3.27939 -3.57124 2.05216 
1 -0.609174 -1.1849 3.60042 
1 -3.65096 -1.28676 3.2441 
1 0.466043 -2.12387 3.27619 
1 0.495473 -0.68197 3.34774 
1 0.676598 -0.676972 2.1434 
1 0.854096 -3.12878 3.39017 
1 0.96683 -3.68202 2.46711 
2 0.988143 -1.40777 3.45617 
1 0.981173 -1.55198 2.58644 
1 0.936012 -2.61287 2.35428 
2 -2.2531 -0.512679 3.73194 
1 1.58523 -2.3837 3.15363 
1 1.7576 -0.160281 3.09847 
1 1.72624 -0.688321 2.17309 
1 1.83535 -1.2989 3.13591 
1 1.82896 -3.71782 3.10679 
2 -3.55614 0.418059 3.44485 
1 -3.52761 1.57005 2.99778 
1 -3.22936 0.340829 2.20727 
1 -2.80737 0.816087 3.1333 
1 -2.59418 1.81079 3.57324 
1 -2.69391 1.2542 2.1776 
2 -2.39323 0.466214 2.45644 
1 -2.00279 0.11644 3.14184 
1 -1.82246 1.12968 2.77167 
1 -1.08488 0.368564 2.62616 
1 -0.890901 0.808421 3.67031 
1 -0.82278 1.49012 2.87938 
1 -0.745913 1.12989 1.89056 
1 -0.0718724 0.727785 2.89684 
1 0.00897829 1.57803 3.59292 
1 0.10113 1.63108 2.38955 
2 -0.856945 1.70375 3.72448 
1 0.818443 0.169193 2.75631 
1 0.993331 1.07266 3.39888 
1 1.05036 1.08401 2.3029 
2 1.606 0.242171 2.30116 
1 1.82888 1.79846 2.3797 
1 1.93819 1.68087 3.47922 
1 1.93859 -1.89848 2.25507 
1 1.91936 -2.97083 2.33183 
2 3.58597 -1.5848 2.44984 
1 2.77378 -1.71413 2.9394 
2 2.22164 -1.96086 3.57393 
1 2.89993 -1.38796 1.94848 
1 2.64239 -0.692651 2.80775 
1 3.6194 -0.634674 2.40497 
2 3.59277 -3.01887 2.41171 
1 2.82923 -3.41631 2.58949 
2 2.95807 -1.08476 3.55421 
1 3.42197 -0.320011 3.42331 
1 3.50271 -3.28863 3.42281 
1 2.85692 -2.45568 2.12408 
1 3.57599 -2.3343 2.97668 
1 2.59465 -2.72571 3.34487 
1 3.63557 1.235 1.97461 
1 2.87591 1.53322 2.83346 
1 2.04944 0.843108 2.77826 
2 2.75085 0.941466 2.16586 
2 2.59161 0.161559 3.11455 
1 3.32736 0.515833 2.73189 
1 2.48242 0.112086 2.18552 
1 -3.25033 3.39067 3.68164 
1 -3.2275 2.15064 2.08088 
1 -3.05884 2.59362 3.03783 
2 -2.91658 3.56187 2.85871 
1 -2.64057 3.06229 2.1646 
1 -2.21423 2.12335 2.55594 
1 -2.1972 2.92636 3.58154 
1 -1.70694 3.0475 2.65766 
1 -1.4739 2.1824 3.3232 
1 -1.25181 3.53506 3.4593 
1 -0.998271 2.34404 2.30214 
2 -0.900962 2.83202 3.05354 
1 -0.700679 3.41851 2.42183 
1 -0.207423 3.48385 3.38278 
1 -0.0683764 2.58637 2.80611 
2 0.336655 2.41133 3.57237 
2 0.593941 2.95492 2.32975 
1 0.747154 3.1444 3.26016 
1 0.910727 2.06426 2.99299 
1 0.893693 2.12527 1.91481 
1 1.47619 2.85954 2.5282 
1 1.59474 2.6743 3.62025 
1 2.40325 2.51147 2.91026 
1 3.66816 3.32459 2.71125 
1 2.23018 2.64055 1.84945 
1 2.80624 3.35418 3.39213 
1 3.39994 2.44561 3.28955 
1 3.23444 2.43923 2.22335 
2 2.35624 3.29851 2.49123 
